MAPUNITS
 'METRES  '
/

MAPAXES
   0.00000000E+00   0.10000000E+01   0.00000000E+00   0.00000000E+00
   0.10000000E+01   0.00000000E+00
/
GRIDUNIT
 'METRES  ' '        '
/

SPECGRID
  11  16  40  1  F / 

COORD
   0.43280816E+06   0.64773790E+07   0.31619771E+04   0.43278591E+06
   0.64773670E+07   0.32246011E+04   0.43285609E+06   0.64773775E+07
   0.31642310E+04   0.43283372E+06   0.64773660E+07   0.32219600E+04
   0.43290422E+06   0.64773760E+07   0.31656680E+04   0.43288031E+06
   0.64773645E+07   0.32246951E+04   0.43295306E+06   0.64773755E+07
   0.31638479E+04   0.43292725E+06   0.64773635E+07   0.32259551E+04
   0.43300275E+06   0.64773750E+07   0.31582041E+04   0.43297541E+06
   0.64773625E+07   0.32222300E+04   0.43305178E+06   0.64773745E+07
   0.31545210E+04   0.43302481E+06   0.64773625E+07   0.32137300E+04
   0.43309897E+06   0.64773730E+07   0.31585811E+04   0.43307294E+06
   0.64773620E+07   0.32106650E+04   0.43314650E+06   0.64773720E+07
   0.31632771E+04   0.43311928E+06   0.64773605E+07   0.32139089E+04
   0.43319562E+06   0.64773715E+07   0.31624380E+04   0.43316569E+06
   0.64773590E+07   0.32173350E+04   0.43324394E+06   0.64773705E+07
   0.31635171E+04   0.43321300E+06   0.64773580E+07   0.32189241E+04
   0.43329119E+06   0.64773695E+07   0.31693369E+04   0.43325962E+06
   0.64773570E+07   0.32238279E+04   0.43333819E+06   0.64773685E+07
   0.31770769E+04   0.43330556E+06   0.64773555E+07   0.32317981E+04
   0.43281162E+06   0.64774305E+07   0.31514070E+04   0.43278756E+06
   0.64774180E+07   0.32151350E+04   0.43285894E+06   0.64774290E+07
   0.31562490E+04   0.43283491E+06   0.64774165E+07   0.32139880E+04
   0.43290672E+06   0.64774275E+07   0.31590840E+04   0.43288091E+06
   0.64774145E+07   0.32192219E+04   0.43295550E+06   0.64774265E+07
   0.31570471E+04   0.43292759E+06   0.64774135E+07   0.32215000E+04
   0.43300419E+06   0.64774255E+07   0.31544800E+04   0.43297550E+06
   0.64774125E+07   0.32188110E+04   0.43305169E+06   0.64774240E+07
   0.31563140E+04   0.43302372E+06   0.64774120E+07   0.32149519E+04
   0.43309803E+06   0.64774225E+07   0.31633149E+04   0.43307044E+06
   0.64774105E+07   0.32167400E+04   0.43314562E+06   0.64774215E+07
   0.31671631E+04   0.43311594E+06   0.64774090E+07   0.32229519E+04
   0.43319416E+06   0.64774205E+07   0.31667939E+04   0.43316234E+06
   0.64774075E+07   0.32267510E+04   0.43324150E+06   0.64774195E+07
   0.31707561E+04   0.43320947E+06   0.64774065E+07   0.32289221E+04
   0.43328881E+06   0.64774185E+07   0.31760559E+04   0.43325566E+06
   0.64774050E+07   0.32338330E+04   0.43333547E+06   0.64774175E+07
   0.31831150E+04   0.43330278E+06   0.64774045E+07   0.32365320E+04
   0.43281562E+06   0.64774825E+07   0.31420371E+04   0.43278909E+06
   0.64774685E+07   0.32076941E+04   0.43286331E+06   0.64774810E+07
   0.31449299E+04   0.43283622E+06   0.64774670E+07   0.32074009E+04
   0.43291134E+06   0.64774795E+07   0.31463611E+04   0.43288231E+06
   0.64774650E+07   0.32117749E+04   0.43295934E+06   0.64774780E+07
   0.31455249E+04   0.43293009E+06   0.64774640E+07   0.32103140E+04
   0.43300581E+06   0.64774760E+07   0.31497041E+04   0.43297850E+06
   0.64774635E+07   0.32064790E+04   0.43305172E+06   0.64774740E+07
   0.31567629E+04   0.43302594E+06   0.64774630E+07   0.32056521E+04
   0.43309778E+06   0.64774725E+07   0.31641479E+04   0.43307153E+06
   0.64774610E+07   0.32101089E+04   0.43314494E+06   0.64774710E+07
   0.31683960E+04   0.43311634E+06   0.64774590E+07   0.32176599E+04
   0.43319256E+06   0.64774700E+07   0.31704871E+04   0.43316200E+06
   0.64774570E+07   0.32231699E+04   0.43323913E+06   0.64774685E+07
   0.31763640E+04   0.43320788E+06   0.64774560E+07   0.32287280E+04
   0.43328572E+06   0.64774675E+07   0.31827891E+04   0.43325359E+06
   0.64774545E+07   0.32350840E+04   0.43333175E+06   0.64774660E+07
   0.31902439E+04   0.43330166E+06   0.64774540E+07   0.32352319E+04
   0.43281863E+06   0.64775340E+07   0.31404900E+04   0.43279372E+06
   0.64775210E+07   0.31948870E+04   0.43286766E+06   0.64775330E+07
   0.31353750E+04   0.43284309E+06   0.64775205E+07   0.31863420E+04
   0.43291522E+06   0.64775310E+07   0.31359189E+04   0.43289003E+06
   0.64775190E+07   0.31868660E+04   0.43296131E+06   0.64775290E+07
   0.31403711E+04   0.43293875E+06   0.64775180E+07   0.31827380E+04
   0.43300528E+06   0.64775260E+07   0.31520720E+04   0.43298303E+06
   0.64775160E+07   0.31888679E+04   0.43304966E+06   0.64775230E+07
   0.31638501E+04   0.43302634E+06   0.64775130E+07   0.31995500E+04
   0.43309622E+06   0.64775215E+07   0.31693440E+04   0.43307053E+06
   0.64775105E+07   0.32086741E+04   0.43314369E+06   0.64775205E+07
   0.31712581E+04   0.43311603E+06   0.64775085E+07   0.32148530E+04
   0.43319025E+06   0.64775190E+07   0.31755310E+04   0.43316219E+06
   0.64775075E+07   0.32196111E+04   0.43323553E+06   0.64775170E+07
   0.31842871E+04   0.43320837E+06   0.64775060E+07   0.32243230E+04
   0.43328047E+06   0.64775155E+07   0.31938650E+04   0.43325425E+06
   0.64775050E+07   0.32292271E+04   0.43332559E+06   0.64775140E+07
   0.32019231E+04   0.43330103E+06   0.64775040E+07   0.32314761E+04
   0.43281678E+06   0.64775825E+07   0.31559419E+04   0.43279809E+06
   0.64775725E+07   0.31851211E+04   0.43286509E+06   0.64775815E+07
   0.31500779E+04   0.43284472E+06   0.64775710E+07   0.31799961E+04
   0.43291234E+06   0.64775795E+07   0.31494661E+04   0.43288994E+06
   0.64775685E+07   0.31830969E+04   0.43295981E+06   0.64775780E+07
   0.31493491E+04   0.43293694E+06   0.64775670E+07   0.31842219E+04
   0.43300634E+06   0.64775760E+07   0.31525459E+04   0.43298300E+06
   0.64775655E+07   0.31874829E+04   0.43305206E+06   0.64775740E+07
   0.31588330E+04   0.43302878E+06   0.64775635E+07   0.31937061E+04
   0.43309822E+06   0.64775725E+07   0.31638240E+04   0.43307491E+06
   0.64775625E+07   0.31981750E+04   0.43314453E+06   0.64775705E+07
   0.31676121E+04   0.43312200E+06   0.64775610E+07   0.31991721E+04
   0.43318937E+06   0.64775685E+07   0.31752500E+04   0.43316684E+06
   0.64775595E+07   0.32037520E+04   0.43323303E+06   0.64775665E+07
   0.31867500E+04   0.43321006E+06   0.64775570E+07   0.32140200E+04
   0.43327656E+06   0.64775640E+07   0.31980371E+04   0.43325347E+06
   0.64775550E+07   0.32240430E+04   0.43332047E+06   0.64775620E+07
   0.32074351E+04   0.43329684E+06   0.64775530E+07   0.32328181E+04
   0.43281428E+06   0.64776310E+07   0.31693369E+04   0.43279341E+06
   0.64776200E+07   0.31985049E+04   0.43285941E+06   0.64776280E+07
   0.31722129E+04   0.43283900E+06   0.64776175E+07   0.31994351E+04
   0.43290609E+06   0.64776260E+07   0.31723989E+04   0.43288503E+06
   0.64776160E+07   0.32010200E+04   0.43295503E+06   0.64776255E+07
   0.31672771E+04   0.43293306E+06   0.64776155E+07   0.31985129E+04
   0.43300475E+06   0.64776250E+07   0.31600669E+04   0.43298328E+06
   0.64776155E+07   0.31900500E+04   0.43305237E+06   0.64776240E+07
   0.31583291E+04   0.43303238E+06   0.64776155E+07   0.31843020E+04
   0.43309837E+06   0.64776225E+07   0.31616670E+04   0.43307834E+06
   0.64776135E+07   0.31856721E+04   0.43314447E+06   0.64776205E+07
   0.31654570E+04   0.43312253E+06   0.64776115E+07   0.31913911E+04
   0.43318937E+06   0.64776185E+07   0.31721111E+04   0.43316825E+06
   0.64776100E+07   0.31970710E+04   0.43323288E+06   0.64776165E+07
   0.31825061E+04   0.43321250E+06   0.64776080E+07   0.32049819E+04
   0.43327556E+06   0.64776140E+07   0.31943081E+04   0.43325397E+06
   0.64776055E+07   0.32171780E+04   0.43331812E+06   0.64776115E+07
   0.32060591E+04   0.43329572E+06   0.64776030E+07   0.32296489E+04
   0.43281603E+06   0.64776815E+07   0.31705061E+04   0.43279697E+06
   0.64776715E+07   0.31957891E+04   0.43285922E+06   0.64776775E+07
   0.31785049E+04   0.43283956E+06   0.64776675E+07   0.32035020E+04
   0.43290547E+06   0.64776755E+07   0.31788760E+04   0.43288356E+06
   0.64776650E+07   0.32083931E+04   0.43295275E+06   0.64776740E+07
   0.31762061E+04   0.43293056E+06   0.64776635E+07   0.32072561E+04
   0.43300006E+06   0.64776730E+07   0.31734431E+04   0.43297875E+06
   0.64776630E+07   0.32026689E+04   0.43304753E+06   0.64776720E+07
   0.31708181E+04   0.43302766E+06   0.64776635E+07   0.31960471E+04
   0.43309516E+06   0.64776710E+07   0.31691819E+04   0.43307450E+06
   0.64776620E+07   0.31940100E+04   0.43314344E+06   0.64776700E+07
   0.31669150E+04   0.43312247E+06   0.64776615E+07   0.31928140E+04
   0.43319000E+06   0.64776690E+07   0.31683059E+04   0.43317144E+06
   0.64776615E+07   0.31902019E+04   0.43323425E+06   0.64776670E+07
   0.31750569E+04   0.43321503E+06   0.64776590E+07   0.31949751E+04
   0.43327706E+06   0.64776645E+07   0.31847830E+04   0.43325463E+06
   0.64776560E+07   0.32087791E+04   0.43331984E+06   0.64776625E+07
   0.31949451E+04   0.43329534E+06   0.64776530E+07   0.32239180E+04
   0.43281844E+06   0.64777320E+07   0.31697939E+04   0.43279953E+06
   0.64777225E+07   0.31929009E+04   0.43286153E+06   0.64777280E+07
   0.31761289E+04   0.43284159E+06   0.64777185E+07   0.31991870E+04
   0.43290609E+06   0.64777255E+07   0.31793479E+04   0.43288475E+06
   0.64777155E+07   0.32063730E+04   0.43295259E+06   0.64777240E+07
   0.31778140E+04   0.43293138E+06   0.64777140E+07   0.32059561E+04
   0.43299891E+06   0.64777220E+07   0.31772271E+04   0.43297825E+06
   0.64777130E+07   0.32043799E+04   0.43304575E+06   0.64777210E+07
   0.31758789E+04   0.43302528E+06   0.64777120E+07   0.32022959E+04
   0.43309437E+06   0.64777205E+07   0.31709221E+04   0.43307262E+06
   0.64777110E+07   0.31998159E+04   0.43314397E+06   0.64777205E+07
   0.31637581E+04   0.43312300E+06   0.64777115E+07   0.31913970E+04
   0.43319103E+06   0.64777195E+07   0.31623020E+04   0.43317156E+06
   0.64777115E+07   0.31858860E+04   0.43323559E+06   0.64777175E+07
   0.31671589E+04   0.43321672E+06   0.64777100E+07   0.31880371E+04
   0.43327938E+06   0.64777155E+07   0.31734929E+04   0.43325856E+06
   0.64777075E+07   0.31966230E+04   0.43332316E+06   0.64777140E+07
   0.31790391E+04   0.43329997E+06   0.64777055E+07   0.32079341E+04
   0.43281731E+06   0.64777805E+07   0.31773850E+04   0.43279688E+06
   0.64777705E+07   0.32027839E+04   0.43286050E+06   0.64777770E+07
   0.31809250E+04   0.43284134E+06   0.64777680E+07   0.32020381E+04
   0.43290369E+06   0.64777740E+07   0.31867710E+04   0.43288341E+06
   0.64777645E+07   0.32102759E+04   0.43295059E+06   0.64777725E+07
   0.31838091E+04   0.43292922E+06   0.64777630E+07   0.32116321E+04
   0.43299831E+06   0.64777715E+07   0.31787371E+04   0.43297778E+06
   0.64777625E+07   0.32056389E+04   0.43304559E+06   0.64777705E+07
   0.31753521E+04   0.43302531E+06   0.64777620E+07   0.32013940E+04
   0.43309378E+06   0.64777700E+07   0.31703840E+04   0.43307262E+06
   0.64777615E+07   0.31984441E+04   0.43314316E+06   0.64777700E+07
   0.31625081E+04   0.43312231E+06   0.64777615E+07   0.31912141E+04
   0.43319059E+06   0.64777690E+07   0.31591340E+04   0.43317200E+06
   0.64777615E+07   0.31831250E+04   0.43323541E+06   0.64777675E+07
   0.31629509E+04   0.43321716E+06   0.64777605E+07   0.31845300E+04
   0.43327956E+06   0.64777655E+07   0.31678440E+04   0.43326119E+06
   0.64777585E+07   0.31892351E+04   0.43332344E+06   0.64777640E+07
   0.31717700E+04   0.43330441E+06   0.64777570E+07   0.31935540E+04
   0.43281594E+06   0.64778290E+07   0.31846421E+04   0.43279234E+06
   0.64778175E+07   0.32163730E+04   0.43285919E+06   0.64778260E+07
   0.31868779E+04   0.43283875E+06   0.64778165E+07   0.32114131E+04
   0.43290238E+06   0.64778230E+07   0.31916211E+04   0.43288184E+06
   0.64778135E+07   0.32161809E+04   0.43294906E+06   0.64778215E+07
   0.31881489E+04   0.43292734E+06   0.64778115E+07   0.32170149E+04
   0.43299738E+06   0.64778210E+07   0.31807539E+04   0.43297562E+06
   0.64778115E+07   0.32106660E+04   0.43304512E+06   0.64778200E+07
   0.31751809E+04   0.43302450E+06   0.64778115E+07   0.32035330E+04
   0.43309313E+06   0.64778195E+07   0.31696140E+04   0.43307250E+06
   0.64778110E+07   0.31976841E+04   0.43314194E+06   0.64778190E+07
   0.31621660E+04   0.43312216E+06   0.64778115E+07   0.31899971E+04
   0.43318975E+06   0.64778185E+07   0.31572219E+04   0.43317116E+06
   0.64778110E+07   0.31816069E+04   0.43323509E+06   0.64778170E+07
   0.31588159E+04   0.43321613E+06   0.64778100E+07   0.31827251E+04
   0.43327897E+06   0.64778150E+07   0.31643540E+04   0.43325997E+06
   0.64778080E+07   0.31887729E+04   0.43332147E+06   0.64778135E+07
   0.31705049E+04   0.43330056E+06   0.64778060E+07   0.31975701E+04
   0.43281828E+06   0.64778795E+07   0.31805740E+04   0.43279484E+06
   0.64778685E+07   0.32137849E+04   0.43286150E+06   0.64778765E+07
   0.31829209E+04   0.43284019E+06   0.64778665E+07   0.32111289E+04
   0.43290500E+06   0.64778735E+07   0.31857739E+04   0.43288406E+06
   0.64778645E+07   0.32132190E+04   0.43295144E+06   0.64778725E+07
   0.31819810E+04   0.43292909E+06   0.64778625E+07   0.32132219E+04
   0.43300016E+06   0.64778720E+07   0.31726799E+04   0.43297728E+06
   0.64778625E+07   0.32061670E+04   0.43304859E+06   0.64778715E+07
   0.31642461E+04   0.43302609E+06   0.64778620E+07   0.31972170E+04
   0.43309497E+06   0.64778700E+07   0.31612881E+04   0.43307353E+06
   0.64778615E+07   0.31918789E+04   0.43314125E+06   0.64778685E+07
   0.31594629E+04   0.43312075E+06   0.64778605E+07   0.31888799E+04
   0.43318778E+06   0.64778675E+07   0.31579031E+04   0.43316753E+06
   0.64778600E+07   0.31866089E+04   0.43323312E+06   0.64778660E+07
   0.31591609E+04   0.43321253E+06   0.64778585E+07   0.31882090E+04
   0.43336238E+06   0.64778945E+07   0.30396069E+04   0.43335069E+06
   0.64778905E+07   0.30565840E+04   0.43341050E+06   0.64778930E+07
   0.30378870E+04   0.43339662E+06   0.64778885E+07   0.30579741E+04
   0.43282138E+06   0.64779305E+07   0.31739939E+04   0.43279741E+06
   0.64779190E+07   0.32083479E+04   0.43286591E+06   0.64779280E+07
   0.31714270E+04   0.43284525E+06   0.64779185E+07   0.31994309E+04
   0.43290931E+06   0.64779250E+07   0.31738069E+04   0.43288903E+06
   0.64779160E+07   0.32002180E+04   0.43295519E+06   0.64779235E+07
   0.31707161E+04   0.43293263E+06   0.64779140E+07   0.32024290E+04
   0.43300237E+06   0.64779225E+07   0.31633660E+04   0.43297909E+06
   0.64779130E+07   0.31986499E+04   0.43304850E+06   0.64779210E+07
   0.31594060E+04   0.43302581E+06   0.64779115E+07   0.31938889E+04
   0.43309428E+06   0.64779190E+07   0.31584500E+04   0.43307228E+06
   0.64779105E+07   0.31912620E+04   0.43313981E+06   0.64779175E+07
   0.31580530E+04   0.43311856E+06   0.64779095E+07   0.31898911E+04
   0.43324384E+06   0.64779380E+07   0.30688320E+04   0.43322319E+06
   0.64779300E+07   0.31003931E+04   0.43329187E+06   0.64779370E+07
   0.30650581E+04   0.43327072E+06   0.64779290E+07   0.30975911E+04
   0.43335184E+06   0.64779395E+07   0.30443081E+04   0.43334059E+06
   0.64779355E+07   0.30615081E+04   0.43340225E+06   0.64779385E+07
   0.30391899E+04   0.43338875E+06   0.64779345E+07   0.30593091E+04
   0.43282128E+06   0.64779795E+07   0.31742510E+04   0.43279603E+06
   0.64779680E+07   0.32134060E+04   0.43286781E+06   0.64779785E+07
   0.31643491E+04   0.43284575E+06   0.64779685E+07   0.31960139E+04
   0.43291222E+06   0.64779760E+07   0.31635901E+04   0.43289084E+06
   0.64779665E+07   0.31928420E+04   0.43295662E+06   0.64779735E+07
   0.31629141E+04   0.43293509E+06   0.64779645E+07   0.31932749E+04
   0.43300172E+06   0.64779715E+07   0.31605281E+04   0.43298006E+06
   0.64779630E+07   0.31924060E+04   0.43304722E+06   0.64779700E+07
   0.31582561E+04   0.43302544E+06   0.64779615E+07   0.31909280E+04
   0.43314350E+06   0.64779870E+07   0.30796479E+04   0.43312225E+06
   0.64779790E+07   0.31118359E+04   0.43319097E+06   0.64779860E+07
   0.30752080E+04   0.43316975E+06   0.64779780E+07   0.31078359E+04
   0.43323941E+06   0.64779850E+07   0.30694199E+04   0.43322116E+06
   0.64779790E+07   0.30979490E+04   0.43328659E+06   0.64779835E+07
   0.30664719E+04   0.43326606E+06   0.64779770E+07   0.30985791E+04
   0.43334587E+06   0.64779855E+07   0.30436489E+04   0.43333462E+06
   0.64779825E+07   0.30613030E+04   0.43339541E+06   0.64779845E+07
   0.30400640E+04   0.43338291E+06   0.64779820E+07   0.30590549E+04
   0.43282028E+06   0.64780285E+07   0.31749939E+04   0.43279547E+06
   0.64780170E+07   0.32147251E+04   0.43286625E+06   0.64780270E+07
   0.31663750E+04   0.43284438E+06   0.64780170E+07   0.31995430E+04
   0.43291141E+06   0.64780250E+07   0.31624290E+04   0.43289031E+06
   0.64780160E+07   0.31930920E+04   0.43295616E+06   0.64780225E+07
   0.31599041E+04   0.43293566E+06   0.64780145E+07   0.31896499E+04
   0.43304691E+06   0.64780385E+07   0.30894851E+04   0.43302600E+06
   0.64780300E+07   0.31201870E+04   0.43309319E+06   0.64780365E+07
   0.30855090E+04   0.43307225E+06   0.64780285E+07   0.31168540E+04
   0.43314006E+06   0.64780345E+07   0.30810410E+04   0.43311891E+06
   0.64780275E+07   0.31132729E+04   0.43318784E+06   0.64780330E+07
   0.30766809E+04   0.43316578E+06   0.64780265E+07   0.31108840E+04
   0.43323544E+06   0.64780315E+07   0.30716570E+04   0.43321378E+06
   0.64780260E+07   0.31057671E+04   0.43328187E+06   0.64780300E+07
   0.30680640E+04   0.43326066E+06   0.64780255E+07   0.31016521E+04
   0.43334050E+06   0.64780310E+07   0.30440330E+04   0.43332928E+06
   0.64780285E+07   0.30618491E+04   0.43338978E+06   0.64780300E+07
   0.30406421E+04   0.43337744E+06   0.64780285E+07   0.30596750E+04
   0.43281975E+06   0.64780780E+07   0.31740330E+04   0.43279706E+06
   0.64780675E+07   0.32086021E+04   0.43286378E+06   0.64780750E+07
   0.31688369E+04   0.43284234E+06   0.64780655E+07   0.32008870E+04
   0.43295181E+06   0.64780915E+07   0.31000591E+04   0.43293037E+06
   0.64780820E+07   0.31313740E+04   0.43299722E+06   0.64780885E+07
   0.30960471E+04   0.43297578E+06   0.64780800E+07   0.31275879E+04
   0.43304400E+06   0.64780865E+07   0.30904160E+04   0.43302266E+06
   0.64780785E+07   0.31223450E+04   0.43309106E+06   0.64780840E+07
   0.30862791E+04   0.43306934E+06   0.64780770E+07   0.31197451E+04
   0.43313734E+06   0.64780815E+07   0.30829929E+04   0.43311619E+06
   0.64780760E+07   0.31161069E+04   0.43318441E+06   0.64780800E+07
   0.30795471E+04   0.43316338E+06   0.64780750E+07   0.31127981E+04
   0.43323194E+06   0.64780780E+07   0.30736631E+04   0.43321069E+06
   0.64780745E+07   0.31077051E+04   0.43327834E+06   0.64780765E+07
   0.30689561E+04   0.43325731E+06   0.64780740E+07   0.31028979E+04
   0.43333650E+06   0.64780765E+07   0.30439971E+04   0.43332519E+06
   0.64780750E+07   0.30623730E+04   0.43338509E+06   0.64780755E+07
   0.30409109E+04   0.43337263E+06   0.64780750E+07   0.30607461E+04
   0.43286084E+06   0.64781465E+07   0.31105750E+04   0.43283919E+06
   0.64781365E+07   0.31427661E+04   0.43290400E+06   0.64781425E+07
   0.31074189E+04   0.43288213E+06   0.64781325E+07   0.31397749E+04
   0.43294866E+06   0.64781395E+07   0.31024351E+04   0.43292694E+06
   0.64781300E+07   0.31348391E+04   0.43299581E+06   0.64781365E+07
   0.30966189E+04   0.43297344E+06   0.64781285E+07   0.31311201E+04
   0.43304247E+06   0.64781335E+07   0.30911479E+04   0.43302081E+06
   0.64781270E+07   0.31253469E+04   0.43308884E+06   0.64781310E+07
   0.30874309E+04   0.43306875E+06   0.64781260E+07   0.31201621E+04
   0.43313628E+06   0.64781285E+07   0.30811321E+04   0.43311616E+06
   0.64781250E+07   0.31135811E+04   0.43318337E+06   0.64781265E+07
   0.30761279E+04   0.43316269E+06   0.64781240E+07   0.31101931E+04
   0.43322925E+06   0.64781250E+07   0.30741741E+04   0.43320859E+06
   0.64781235E+07   0.31084209E+04   0.43327497E+06   0.64781230E+07
   0.30711021E+04   0.43325469E+06   0.64781225E+07   0.31046770E+04
   0.43331978E+06   0.64781220E+07   0.30669861E+04   0.43329919E+06
   0.64781215E+07   0.31010540E+04   0.43336647E+06   0.64781210E+07
   0.30638850E+04   0.43334516E+06   0.64781215E+07   0.30988621E+04
   0.43285831E+06   0.64781940E+07   0.31123191E+04   0.43283656E+06
   0.64781840E+07   0.31445811E+04   0.43290159E+06   0.64781900E+07
   0.31094260E+04   0.43287972E+06   0.64781805E+07   0.31426670E+04
   0.43294553E+06   0.64781860E+07   0.31067229E+04   0.43292391E+06
   0.64781780E+07   0.31406760E+04   0.43299219E+06   0.64781830E+07
   0.31010149E+04   0.43297122E+06   0.64781770E+07   0.31355400E+04
   0.43304037E+06   0.64781805E+07   0.30910649E+04   0.43302125E+06
   0.64781760E+07   0.31227871E+04   0.43308781E+06   0.64781775E+07
   0.30841770E+04   0.43306925E+06   0.64781750E+07   0.31143850E+04
   0.43313469E+06   0.64781750E+07   0.30797019E+04   0.43311628E+06
   0.64781735E+07   0.31095510E+04   0.43318088E+06   0.64781730E+07
   0.30776550E+04   0.43316175E+06   0.64781725E+07   0.31086121E+04
   0.43322597E+06   0.64781710E+07   0.30789141E+04   0.43320609E+06
   0.64781715E+07   0.31122520E+04   0.43327297E+06   0.64781695E+07
   0.30740969E+04   0.43325309E+06   0.64781710E+07   0.31081089E+04
   0.43331884E+06   0.64781685E+07   0.30691150E+04   0.43329922E+06
   0.64781705E+07   0.31023120E+04   0.43336444E+06   0.64781685E+07
   0.30655620E+04   0.43334450E+06   0.64781715E+07   0.30988889E+04
/

ZCORN
   0.31619771E+04   0.31642310E+04   0.31642310E+04   0.31656680E+04
   0.31656680E+04   0.31638479E+04   0.31638479E+04   0.31582041E+04
   0.31582041E+04   0.31545210E+04   0.31545210E+04   0.31585811E+04
   0.31585811E+04   0.31632771E+04   0.31632771E+04   0.31624380E+04
   0.31624380E+04   0.31635171E+04   0.31635171E+04   0.31693369E+04
   0.31693369E+04   0.31770769E+04   0.31514070E+04   0.31562490E+04
   0.31562490E+04   0.31590840E+04   0.31590840E+04   0.31570471E+04
   0.31570471E+04   0.31544800E+04   0.31544800E+04   0.31563140E+04
   0.31563140E+04   0.31633149E+04   0.31633149E+04   0.31671631E+04
   0.31671631E+04   0.31667939E+04   0.31667939E+04   0.31707561E+04
   0.31707561E+04   0.31760559E+04   0.31760559E+04   0.31831150E+04
   0.31514070E+04   0.31562490E+04   0.31562490E+04   0.31590840E+04
   0.31590840E+04   0.31570471E+04   0.31570471E+04   0.31544800E+04
   0.31544800E+04   0.31563140E+04   0.31563140E+04   0.31633149E+04
   0.31633149E+04   0.31671631E+04   0.31671631E+04   0.31667939E+04
   0.31667939E+04   0.31707561E+04   0.31707561E+04   0.31760559E+04
   0.31760559E+04   0.31831150E+04   0.31420371E+04   0.31449299E+04
   0.31449299E+04   0.31463611E+04   0.31463611E+04   0.31455249E+04
   0.31455249E+04   0.31497041E+04   0.31497041E+04   0.31567629E+04
   0.31567629E+04   0.31641479E+04   0.31641479E+04   0.31683960E+04
   0.31683960E+04   0.31704871E+04   0.31704871E+04   0.31763640E+04
   0.31763640E+04   0.31827891E+04   0.31827891E+04   0.31902439E+04
   0.31420371E+04   0.31449299E+04   0.31449299E+04   0.31463611E+04
   0.31463611E+04   0.31455249E+04   0.31455249E+04   0.31497041E+04
   0.31497041E+04   0.31567629E+04   0.31567629E+04   0.31641479E+04
   0.31641479E+04   0.31683960E+04   0.31683960E+04   0.31704871E+04
   0.31704871E+04   0.31763640E+04   0.31763640E+04   0.31827891E+04
   0.31827891E+04   0.31902439E+04   0.31404900E+04   0.31353750E+04
   0.31353750E+04   0.31359189E+04   0.31359189E+04   0.31403711E+04
   0.31403711E+04   0.31520720E+04   0.31520720E+04   0.31638501E+04
   0.31638501E+04   0.31693440E+04   0.31693440E+04   0.31712581E+04
   0.31712581E+04   0.31755310E+04   0.31755310E+04   0.31842871E+04
   0.31842871E+04   0.31938650E+04   0.31938650E+04   0.32019231E+04
   0.31404900E+04   0.31353750E+04   0.31353750E+04   0.31359189E+04
   0.31359189E+04   0.31403711E+04   0.31403711E+04   0.31520720E+04
   0.31520720E+04   0.31638501E+04   0.31638501E+04   0.31693440E+04
   0.31693440E+04   0.31712581E+04   0.31712581E+04   0.31755310E+04
   0.31755310E+04   0.31842871E+04   0.31842871E+04   0.31938650E+04
   0.31938650E+04   0.32019231E+04   0.31559419E+04   0.31500779E+04
   0.31500779E+04   0.31494661E+04   0.31494661E+04   0.31493491E+04
   0.31493491E+04   0.31525459E+04   0.31525459E+04   0.31588330E+04
   0.31588330E+04   0.31638240E+04   0.31638240E+04   0.31676121E+04
   0.31676121E+04   0.31752500E+04   0.31752500E+04   0.31867500E+04
   0.31867500E+04   0.31980371E+04   0.31980371E+04   0.32074351E+04
   0.31559419E+04   0.31500779E+04   0.31500779E+04   0.31494661E+04
   0.31494661E+04   0.31493491E+04   0.31493491E+04   0.31525459E+04
   0.31525459E+04   0.31588330E+04   0.31588330E+04   0.31638240E+04
   0.31638240E+04   0.31676121E+04   0.31676121E+04   0.31752500E+04
   0.31752500E+04   0.31867500E+04   0.31867500E+04   0.31980371E+04
   0.31980371E+04   0.32074351E+04   0.31693369E+04   0.31722129E+04
   0.31722129E+04   0.31723989E+04   0.31723989E+04   0.31672771E+04
   0.31672771E+04   0.31600669E+04   0.31600669E+04   0.31583291E+04
   0.31583291E+04   0.31616670E+04   0.31616670E+04   0.31654570E+04
   0.31654570E+04   0.31721111E+04   0.31721111E+04   0.31825061E+04
   0.31825061E+04   0.31943081E+04   0.31943081E+04   0.32060591E+04
   0.31693369E+04   0.31722129E+04   0.31722129E+04   0.31723989E+04
   0.31723989E+04   0.31672771E+04   0.31672771E+04   0.31600669E+04
   0.31600669E+04   0.31583291E+04   0.31583291E+04   0.31616670E+04
   0.31616670E+04   0.31654570E+04   0.31654570E+04   0.31721111E+04
   0.31721111E+04   0.31825061E+04   0.31825061E+04   0.31943081E+04
   0.31943081E+04   0.32060591E+04   0.31705061E+04   0.31785049E+04
   0.31785049E+04   0.31788760E+04   0.31788760E+04   0.31762061E+04
   0.31762061E+04   0.31734431E+04   0.31734431E+04   0.31708181E+04
   0.31708181E+04   0.31691819E+04   0.31691819E+04   0.31669150E+04
   0.31669150E+04   0.31683059E+04   0.31683059E+04   0.31750569E+04
   0.31750569E+04   0.31847830E+04   0.31847830E+04   0.31949451E+04
   0.31705061E+04   0.31785049E+04   0.31785049E+04   0.31788760E+04
   0.31788760E+04   0.31762061E+04   0.31762061E+04   0.31734431E+04
   0.31734431E+04   0.31708181E+04   0.31708181E+04   0.31691819E+04
   0.31691819E+04   0.31669150E+04   0.31669150E+04   0.31683059E+04
   0.31683059E+04   0.31750569E+04   0.31750569E+04   0.31847830E+04
   0.31847830E+04   0.31949451E+04   0.31697939E+04   0.31761289E+04
   0.31761289E+04   0.31793479E+04   0.31793479E+04   0.31778140E+04
   0.31778140E+04   0.31772271E+04   0.31772271E+04   0.31758789E+04
   0.31758789E+04   0.31709221E+04   0.31709221E+04   0.31637581E+04
   0.31637581E+04   0.31623020E+04   0.31623020E+04   0.31671589E+04
   0.31671589E+04   0.31734929E+04   0.31734929E+04   0.31790391E+04
   0.31697939E+04   0.31761289E+04   0.31761289E+04   0.31793479E+04
   0.31793479E+04   0.31778140E+04   0.31778140E+04   0.31772271E+04
   0.31772271E+04   0.31758789E+04   0.31758789E+04   0.31709221E+04
   0.31709221E+04   0.31637581E+04   0.31637581E+04   0.31623020E+04
   0.31623020E+04   0.31671589E+04   0.31671589E+04   0.31734929E+04
   0.31734929E+04   0.31790391E+04   0.31773850E+04   0.31809250E+04
   0.31809250E+04   0.31867710E+04   0.31867710E+04   0.31838091E+04
   0.31838091E+04   0.31787371E+04   0.31787371E+04   0.31753521E+04
   0.31753521E+04   0.31703840E+04   0.31703840E+04   0.31625081E+04
   0.31625081E+04   0.31591340E+04   0.31591340E+04   0.31629509E+04
   0.31629509E+04   0.31678440E+04   0.31678440E+04   0.31717700E+04
   0.31773850E+04   0.31809250E+04   0.31809250E+04   0.31867710E+04
   0.31867710E+04   0.31838091E+04   0.31838091E+04   0.31787371E+04
   0.31787371E+04   0.31753521E+04   0.31753521E+04   0.31703840E+04
   0.31703840E+04   0.31625081E+04   0.31625081E+04   0.31591340E+04
   0.31591340E+04   0.31629509E+04   0.31629509E+04   0.31678440E+04
   0.31678440E+04   0.31717700E+04   0.31846421E+04   0.31868779E+04
   0.31868779E+04   0.31916211E+04   0.31916211E+04   0.31881489E+04
   0.31881489E+04   0.31807539E+04   0.31807539E+04   0.31751809E+04
   0.31751809E+04   0.31696140E+04   0.31696140E+04   0.31621660E+04
   0.31621660E+04   0.31572219E+04   0.31572219E+04   0.31588159E+04
   0.31588159E+04   0.31643540E+04   0.31643540E+04   0.31705049E+04
   0.31846421E+04   0.31868779E+04   0.31868779E+04   0.31916211E+04
   0.31916211E+04   0.31881489E+04   0.31881489E+04   0.31807539E+04
   0.31807539E+04   0.31751809E+04   0.31751809E+04   0.31696140E+04
   0.31696140E+04   0.31621660E+04   0.31621660E+04   0.31572219E+04
   0.31572219E+04   0.31588159E+04   0.31588159E+04   0.31643540E+04
   0.31643540E+04   0.31705049E+04   0.31805740E+04   0.31829209E+04
   0.31829209E+04   0.31857739E+04   0.31857739E+04   0.31819810E+04
   0.31819810E+04   0.31726799E+04   0.31726799E+04   0.31642461E+04
   0.31642461E+04   0.31612881E+04   0.31612881E+04   0.31594629E+04
   0.31594629E+04   0.31579031E+04   0.31579031E+04   0.31591609E+04
   0.31591609E+04   0.31637480E+04   0.31637480E+04   0.31710701E+04
   0.31805740E+04   0.31829209E+04   0.31829209E+04   0.31857739E+04
   0.31857739E+04   0.31819810E+04   0.31819810E+04   0.31726799E+04
   0.31726799E+04   0.31642461E+04   0.31642461E+04   0.31612881E+04
   0.31612881E+04   0.31594629E+04   0.31594629E+04   0.31579031E+04
   0.31579031E+04   0.31591609E+04   0.31591609E+04   0.31637480E+04
   0.30396069E+04   0.30378870E+04   0.31739939E+04   0.31714270E+04
   0.31714270E+04   0.31738069E+04   0.31738069E+04   0.31707161E+04
   0.31707161E+04   0.31633660E+04   0.31633660E+04   0.31594060E+04
   0.31594060E+04   0.31584500E+04   0.31584500E+04   0.31580530E+04
   0.31580530E+04   0.31584390E+04   0.31584390E+04   0.31597380E+04
   0.31597380E+04   0.31618130E+04   0.30443081E+04   0.30391899E+04
   0.31739939E+04   0.31714270E+04   0.31714270E+04   0.31738069E+04
   0.31738069E+04   0.31707161E+04   0.31707161E+04   0.31633660E+04
   0.31633660E+04   0.31594060E+04   0.31594060E+04   0.31584500E+04
   0.31584500E+04   0.31580530E+04   0.31580530E+04   0.31584390E+04