NOECHO


SPECGRID
  30 30 12  F  /


FAULTS
-- NAME               IX1  IX2    IY1  IY2    IZ1  IZ2   FACE    

'F_TEST1'	      8     8	 1	1     1   12	 J     /
'F_TEST1'	      8     8	 1	1     1   12	 I-    /
'F_TEST1'	      9     9	 2	2     1   12	 J     /
'F_TEST1'	      9     9	 2	2     1   12	 I-    /
'F_TEST1'	      10    10	 3	3     1   12	 J     /
'F_TEST1'	      10    10	 3	3     1   12	 I-    /

'F_TEST2'	      2     2	 1	1     1   12	 J     /
'F_TEST2'	      2     2	 1	1     1   12	 I-    /
'F_TEST2'	      3     3	 2	2     1   12	 J     /
'F_TEST2'	      3     3	 2	2     1   12	 I-    /
'F_TEST2'	      4     4	 3	3     1   12	 J     /
'F_TEST2'	      4     4	 3	3     1   12	 I-    /

'F_ORIG1'     1   1     21   21     1   5     I       / 
'F_ORIG1'     1   1     21   21     8   8     I       / 
'F_ORIG1'     1   1     21   21     11   12     I       / 
'F_ORIG1'     1   1     21   21     1   6     J       / 
'F_ORIG1'     1   1     21   21     8   9     J       / 
'F_ORIG1'     1   1     21   21     11   12     J       / 
'F_ORIG1'     2   2     20   20     1   2     I       / 
'F_ORIG1'     2   2     20   20     5   5     I       / 
'F_ORIG1'     2   2     20   20     7   12     I       / 
'F_ORIG1'     2   2     20   20     1   3     J       / 
'F_ORIG1'     2   2     20   20     5   5     J       / 
'F_ORIG1'     2   2     20   20     8   8     J       / 
'F_ORIG1'     2   2     20   20     11   12     J       / 
'F_ORIG1'     3   3     19   19     1   2     I       / 
'F_ORIG1'     3   3     19   19     5   7     I       / 
'F_ORIG1'     3   3     19   19     10   12     I       / 
'F_ORIG1'     3   3     19   19     1   2     J       / 
'F_ORIG1'     3   3     19   19     5   8     J       / 
'F_ORIG1'     3   3     19   19     10   12     J       / 
'F_ORIG1'     4   4     18   18     1   2     I       / 
'F_ORIG1'     4   4     18   18     5   5     I       / 
'F_ORIG1'     4   4     18   18     7   10     I       / 
'F_ORIG1'     4   4     18   18     12   12     I       / 
'F_ORIG1'     4   4     18   18     1   2     J       / 
'F_ORIG1'     4   4     18   18     4   5     J       / 
'F_ORIG1'     4   4     18   18     7   7     J       / 
'F_ORIG1'     4   4     18   18     9   10     J       / 
'F_ORIG1'     4   4     18   18     12   12     J       / 
'F_ORIG1'     5   5     17   17     2   2     I       / 
'F_ORIG1'     5   5     17   17     4   4     I       / 
'F_ORIG1'     5   5     17   17     6   10     I       / 
'F_ORIG1'     5   5     17   17     12   12     I       / 
'F_ORIG1'     5   5     17   17     1   2     J       / 
'F_ORIG1'     5   5     17   17     5   10     J       / 
'F_ORIG1'     5   5     17   17     12   12     J       / 
'F_ORIG1'     6   6     16   16     1   10     I       / 
'F_ORIG1'     6   6     16   16     2   2     J       / 
'F_ORIG1'     6   6     16   16     4   4     J       / 
'F_ORIG1'     6   6     16   16     6   10     J       / 
'F_ORIG1'     7   7     15   15     3   3     I       / 
'F_ORIG1'     7   7     15   15     6   11     I       / 
'F_ORIG1'     7   7     15   15     3   4     J       / 
'F_ORIG1'     7   7     15   15     6   12     J       / 
'F_ORIG1'     8   8     14   14     1   1     I       / 
'F_ORIG1'     8   8     14   14     3   9     I       / 
'F_ORIG1'     8   8     14   14     11   12     I       / 
'F_ORIG1'     8   8     14   14     1   1     J       / 
'F_ORIG1'     8   8     14   14     3   3     J       / 
'F_ORIG1'     8   8     14   14     6   11     J       / 
'F_ORIG1'     9   9     13   13     1   1     I       / 
'F_ORIG1'     9   9     13   13     3   12     I       / 
'F_ORIG1'     9   9     13   13     1   1     J       / 
'F_ORIG1'     9   9     13   13     3   9     J       / 
'F_ORIG1'     9   9     13   13     11   12     J       / 
'F_ORIG1'     10   10     12   12     1   1     I       / 
'F_ORIG1'     10   10     12   12     4   6     I       / 
'F_ORIG1'     10   10     12   12     8   8     I       / 
'F_ORIG1'     10   10     12   12     10   11     I       / 
'F_ORIG1'     10   10     12   12     1   1     J       / 
'F_ORIG1'     10   10     12   12     4   8     J       / 
'F_ORIG1'     10   10     12   12     10   11     J       / 
'F_ORIG1'     11   11     11   11     2   6     I       / 
'F_ORIG1'     11   11     11   11     8   8     I       / 
'F_ORIG1'     11   11     11   11     3   6     J       / 
'F_ORIG1'     11   11     11   11     8   8     J       / 
'F_ORIG1'     11   11     11   11     11   11     J       / 
'F_ORIG1'     12   12     10   10     1   1     I       / 
'F_ORIG1'     12   12     10   10     3   6     I       / 
'F_ORIG1'     12   12     10   10     8   11     I       / 
'F_ORIG1'     12   12     10   10     1   6     J       / 
'F_ORIG1'     12   12     10   10     8   10     J       / 
'F_ORIG1'     13   13     9   9     3   3     I       / 
'F_ORIG1'     13   13     9   9     5   10     I       / 
'F_ORIG1'     13   13     9   9     12   12     I       / 
'F_ORIG1'     13   13     9   9     1   1     J       / 
'F_ORIG1'     13   13     9   9     3   3     J       / 
'F_ORIG1'     13   13     9   9     5   12     J       / 
'F_ORIG1'     14   14     8   8     3   3     I       / 
'F_ORIG1'     14   14     8   8     7   7     I       / 
'F_ORIG1'     14   14     8   8     9   12     I       / 
'F_ORIG1'     14   14     8   8     3   3     J       / 
'F_ORIG1'     14   14     8   8     7   10     J       / 
'F_ORIG1'     14   14     8   8     12   12     J       / 
'F_ORIG1'     15   15     7   7     3   4     I       / 
'F_ORIG1'     15   15     7   7     6   12     I       / 
'F_ORIG1'     15   15     7   7     2   4     J       / 
'F_ORIG1'     15   15     7   7     6   7     J       / 
'F_ORIG1'     15   15     7   7     9   12     J       / 
'F_ORIG1'     16   16     6   6     1   4     I       / 
'F_ORIG1'     16   16     6   6     6   7     I       / 
'F_ORIG1'     16   16     6   6     9   12     I       / 
'F_ORIG1'     16   16     6   6     1   1     J       / 
'F_ORIG1'     16   16     6   6     3   4     J       / 
'F_ORIG1'     16   16     6   6     6   12     J       / 
'F_ORIG1'     17   17     5   5     1   2     J       / 
'F_ORIG1'     17   17     5   5     4   4     J       / 
'F_ORIG1'     17   17     5   5     6   7     J       / 
'F_ORIG1'     17   17     5   5     9   9     J       / 
'F_ORIG1'     17   17     5   5     11   12     J       / 
'F_ORIG1'     18   18     4   4     1   2     I       / 
'F_ORIG1'     18   18     4   4     4   7     I       / 
'F_ORIG1'     18   18     4   4     11   11     I       / 
'F_ORIG1'     18   18     4   4     1   2     J       / 
'F_ORIG1'     18   18     4   4     4   5     J       / 
'F_ORIG1'     18   18     4   4     7   8     J       / 
'F_ORIG1'     18   18     4   4     10   11     J       / 
'F_ORIG1'     19   19     3   3     3   5     I       / 
'F_ORIG1'     19   19     3   3     7   9     I       / 
'F_ORIG1'     19   19     3   3     11   12     I       / 
'F_ORIG1'     19   19     3   3     2   2     J       / 
'F_ORIG1'     19   19     3   3     4   7     J       / 
'F_ORIG1'     19   19     3   3     11   11     J       / 
'F_ORIG1'     20   20     2   2     2   3     I       / 
'F_ORIG1'     20   20     2   2     5   10     I       / 
'F_ORIG1'     20   20     2   2     12   12     I       / 
'F_ORIG1'     20   20     2   2     3   3     J       / 
'F_ORIG1'     20   20     2   2     5   5     J       / 
'F_ORIG1'     20   20     2   2     7   12     J       / 
'F_ORIG1'     21   21     1   1     1   5     I       / 
'F_ORIG1'     21   21     1   1     8   11     I       / 
'F_ORIG1'     21   21     1   1     1   5     J       / 
'F_ORIG1'     21   21     1   1     7   10     J       / 
'F_ORIG1'     21   21     1   1     12   12     J       / 

'F_ORIG2'     15   15     1   1     1   3     I       / 
'F_ORIG2'     15   15     1   1     5   6     I       / 
'F_ORIG2'     15   15     1   1     8   9     I       / 
'F_ORIG2'     15   15     1   1     11   11     I       / 
'F_ORIG2'     16   16     1   1     1   3     J       / 
'F_ORIG2'     16   16     1   1     5   8     J       / 
'F_ORIG2'     16   16     1   1     10   11     J       / 
'F_ORIG2'     16   16     2   2     1   3     I       / 
'F_ORIG2'     16   16     2   2     5   5     I       / 
'F_ORIG2'     16   16     2   2     7   8     I       / 
'F_ORIG2'     16   16     2   2     10   12     I       / 
'F_ORIG2'     16   16     3   3     1   3     I       / 
'F_ORIG2'     16   16     3   3     6   7     I       / 
'F_ORIG2'     16   16     3   3     10   10     I       / 
'F_ORIG2'     16   16     3   3     12   12     I       / 
'F_ORIG2'     17   17     3   3     2   2     J       / 
'F_ORIG2'     17   17     3   3     4   4     J       / 
'F_ORIG2'     17   17     3   3     7   8     J       / 
'F_ORIG2'     17   17     3   3     10   10     J       / 
'F_ORIG2'     17   17     3   3     12   12     J       / 
'F_ORIG2'     17   17     4   4     2   2     I       / 
'F_ORIG2'     17   17     4   4     4   5     I       / 
'F_ORIG2'     17   17     4   4     7   8     I       / 
'F_ORIG2'     17   17     4   4     10   10     I       / 
'F_ORIG2'     17   17     4   4     12   12     I       / 
'F_ORIG2'     17   17     5   5     1   2     I       / 
'F_ORIG2'     17   17     5   5     4   5     I       / 
'F_ORIG2'     17   17     5   5     7   7     I       / 
'F_ORIG2'     17   17     5   5     11   11     I       / 
'F_ORIG2'     18   18     5   5     1   2     J       / 
'F_ORIG2'     18   18     5   5     5   5     J       / 
'F_ORIG2'     18   18     5   5     7   8     J       / 
'F_ORIG2'     18   18     5   5     10   10     J       / 
'F_ORIG2'     18   18     6   6     1   3     I       / 
'F_ORIG2'     18   18     6   6     7   10     I       / 
'F_ORIG2'     18   18     7   7     1   2     I       / 
'F_ORIG2'     18   18     7   7     4   5     I       / 
'F_ORIG2'     18   18     7   7     9   12     I       / 
'F_ORIG2'     19   19     7   7     1   2     J       / 
'F_ORIG2'     19   19     7   7     4   6     J       / 
'F_ORIG2'     19   19     7   7     10   12     J       / 
'F_ORIG2'     19   19     8   8     1   5     I       / 
'F_ORIG2'     19   19     8   8     8   8     I       / 
'F_ORIG2'     19   19     8   8     10   11     I       / 
'F_ORIG2'     19   19     9   9     2   2     I       / 
'F_ORIG2'     19   19     9   9     4   12     I       / 
'F_ORIG2'     20   20     9   9     1   2     J       / 
'F_ORIG2'     20   20     9   9     4   12     J       / 
'F_ORIG2'     20   20     10   10     1   4     I       / 
'F_ORIG2'     20   20     10   10     6   9     I       / 
'F_ORIG2'     20   20     10   10     11   12     I       / 
'F_ORIG2'     20   20     11   11     1   6     I       / 
'F_ORIG2'     20   20     11   11     8   8     I       / 
'F_ORIG2'     20   20     11   11     10   11     I       / 
'F_ORIG2'     21   21     11   11     1   3     J       / 
'F_ORIG2'     21   21     11   11     5   6     J       / 
'F_ORIG2'     21   21     11   11     11   11     J       / 
'F_ORIG2'     21   21     12   12     1   1     I       / 
'F_ORIG2'     21   21     12   12     3   3     I       / 
'F_ORIG2'     21   21     12   12     6   6     I       / 
'F_ORIG2'     21   21     12   12     11   12     I       / 
'F_ORIG2'     21   21     13   13     3   3     I       / 
'F_ORIG2'     21   21     13   13     6   12     I       / 
'F_ORIG2'     22   22     13   13     3   3     J       / 
'F_ORIG2'     22   22     13   13     7   7     J       / 
'F_ORIG2'     22   22     13   13     10   12     J       / 
'F_ORIG2'     22   22     14   14     2   2     I       / 
'F_ORIG2'     22   22     14   14     4   4     I       / 
'F_ORIG2'     22   22     14   14     7   7     I       / 
'F_ORIG2'     22   22     14   14     10   12     I       / 
'F_ORIG2'     22   22     15   15     1   3     I       / 
'F_ORIG2'     22   22     15   15     6   7     I       / 
'F_ORIG2'     22   22     15   15     9   11     I       / 
'F_ORIG2'     23   23     15   15     2   3     J       / 
'F_ORIG2'     23   23     15   15     6   7     J       / 
'F_ORIG2'     23   23     15   15     9   11     J       / 
'F_ORIG2'     23   23     16   16     2   7     I       / 
'F_ORIG2'     23   23     16   16     10   12     I       / 
'F_ORIG2'     23   23     17   17     1   7     I       / 
'F_ORIG2'     23   23     17   17     10   12     I       / 
'F_ORIG2'     24   24     17   17     1   7     J       / 
'F_ORIG2'     24   24     17   17     10   12     J       / 
'F_ORIG2'     24   24     18   18     1   2     I       / 
'F_ORIG2'     24   24     18   18     6   8     I       / 
'F_ORIG2'     24   24     18   18     10   10     I       / 
'F_ORIG2'     24   24     18   18     12   12     I       / 
'F_ORIG2'     24   24     19   19     1   2     I       / 
'F_ORIG2'     24   24     19   19     5   6     I       / 
'F_ORIG2'     24   24     19   19     8   8     I       / 
'F_ORIG2'     24   24     19   19     10   12     I       / 
'F_ORIG2'     25   25     19   19     1   1     J       / 
'F_ORIG2'     25   25     19   19     4   6     J       / 
'F_ORIG2'     25   25     19   19     8   8     J       / 
'F_ORIG2'     25   25     19   19     10   11     J       / 
'F_ORIG2'     25   25     20   20     1   1     I       / 
'F_ORIG2'     25   25     20   20     4   4     I       / 
'F_ORIG2'     25   25     20   20     6   8     I       / 
'F_ORIG2'     25   25     20   20     10   11     I       / 
'F_ORIG2'     25   25     21   21     1   1     I       / 
'F_ORIG2'     25   25     21   21     6   11     I       / 
'F_ORIG2'     26   26     21   21     1   1     J       / 
'F_ORIG2'     26   26     21   21     4   4     J       / 
'F_ORIG2'     26   26     21   21     6   11     J       / 
'F_ORIG2'     26   26     22   22     1   1     I       / 
'F_ORIG2'     26   26     22   22     3   4     I       / 
'F_ORIG2'     26   26     22   22     6   10     I       / 
'F_ORIG2'     26   26     23   23     1   8     I       / 
'F_ORIG2'     26   26     23   23     10   10     I       / 
'F_ORIG2'     26   26     23   23     12   12     I       / 
'F_ORIG2'     27   27     23   23     1   10     J       / 
'F_ORIG2'     27   27     23   23     12   12     J       / 
'F_ORIG2'     27   27     24   24     1   2     I       / 
'F_ORIG2'     27   27     24   24     5   9     I       / 
'F_ORIG2'     27   27     24   24     12   12     I       / 
'F_ORIG2'     27   27     25   25     3   3     I       / 
'F_ORIG2'     27   27     25   25     6   6     I       / 
'F_ORIG2'     27   27     25   25     10   10     I       / 
'F_ORIG2'     27   27     25   25     12   12     I       / 
'F_ORIG2'     28   28     25   25     3   3     J       / 
'F_ORIG2'     28   28     25   25     6   7     J       / 
'F_ORIG2'     28   28     25   25     9   12     J       / 
'F_ORIG2'     28   28     26   26     2   2     I       / 
'F_ORIG2'     28   28     26   26     4   4     I       / 
'F_ORIG2'     28   28     26   26     6   11     I       / 
'F_ORIG2'     28   28     27   27     1   1     I       / 
'F_ORIG2'     28   28     27   27     4   6     I       / 
'F_ORIG2'     28   28     27   27     9   12     I       / 
'F_ORIG2'     29   29     27   27     2   2     J       / 
'F_ORIG2'     29   29     27   27     4   6     J       / 
'F_ORIG2'     29   29     27   27     9   12     J       / 
'F_ORIG2'     29   29     28   28     2   5     I       / 
'F_ORIG2'     29   29     28   28     8   11     I       / 
'F_ORIG2'     29   29     29   29     1   3     I       / 
'F_ORIG2'     29   29     29   29     5   5     I       / 
'F_ORIG2'     29   29     29   29     7   9     I       / 
'F_ORIG2'     30   30     29   29     2   3     J       / 
'F_ORIG2'     30   30     29   29     7   10     J       / 
/
ECHO
