MAPUNITS
 'METRES  '
/

MAPAXES
   0.00000000E+00   0.10000000E+01   0.00000000E+00   0.00000000E+00
   0.10000000E+01   0.00000000E+00
/
GRIDUNIT
 'METRES  ' '        '
/

SPECGRID
  21  23  14  1  F / 

COORD
   0.46081378E+06   0.59343420E+07   0.16274020E+04   0.46090119E+06
   0.59343320E+07   0.16718170E+04   0.46094666E+06   0.59344240E+07
   0.16287200E+04   0.46102906E+06   0.59344140E+07   0.16780400E+04
   0.46110019E+06   0.59345035E+07   0.16421021E+04   0.46116563E+06
   0.59344955E+07   0.16920200E+04   0.46125563E+06   0.59345825E+07
   0.16576479E+04   0.46129969E+06   0.59345780E+07   0.17050330E+04
   0.46138481E+06   0.59346620E+07   0.16396899E+04   0.46141375E+06
   0.59346625E+07   0.16842330E+04   0.46153172E+06   0.59347395E+07
   0.16409680E+04   0.46155294E+06   0.59347450E+07   0.16866689E+04
   0.46167753E+06   0.59348185E+07   0.16474160E+04   0.46169716E+06
   0.59348300E+07   0.16941169E+04   0.46181869E+06   0.59348980E+07
   0.16516750E+04   0.46184541E+06   0.59349190E+07   0.16976700E+04
   0.46195425E+06   0.59349750E+07   0.16496000E+04   0.46199262E+06
   0.59350055E+07   0.16945680E+04   0.46208394E+06   0.59350480E+07
   0.16461300E+04   0.46213616E+06   0.59350880E+07   0.16920690E+04
   0.46221319E+06   0.59351220E+07   0.16467960E+04   0.46227628E+06
   0.59351675E+07   0.16937810E+04   0.46238378E+06   0.59352250E+07
   0.16783490E+04   0.46245844E+06   0.59352780E+07   0.17272700E+04
   0.46252303E+06   0.59353050E+07   0.16866400E+04   0.46259219E+06
   0.59353530E+07   0.17318430E+04   0.46264791E+06   0.59353755E+07
   0.16850930E+04   0.46271934E+06   0.59354250E+07   0.17304690E+04
   0.46277487E+06   0.59354470E+07   0.16820680E+04   0.46285797E+06
   0.59355050E+07   0.17340560E+04   0.46291822E+06   0.59355295E+07
   0.16849200E+04   0.46299141E+06   0.59355820E+07   0.17340129E+04
   0.46305425E+06   0.59356070E+07   0.16834720E+04   0.46311972E+06
   0.59356545E+07   0.17325570E+04   0.46319316E+06   0.59356865E+07
   0.16879800E+04   0.46325616E+06   0.59357330E+07   0.17391490E+04
   0.46334444E+06   0.59357755E+07   0.17058010E+04   0.46339534E+06
   0.59358135E+07   0.17492050E+04   0.46348753E+06   0.59358580E+07
   0.17165439E+04   0.46353541E+06   0.59358940E+07   0.17605610E+04
   0.46362816E+06   0.59359395E+07   0.17245450E+04   0.46367309E+06
   0.59359730E+07   0.17709410E+04   0.46376256E+06   0.59360160E+07
   0.17306270E+04   0.46380166E+06   0.59360450E+07   0.17736350E+04
   0.46088212E+06   0.59342060E+07   0.16276060E+04   0.46097731E+06
   0.59341935E+07   0.16742321E+04   0.46102641E+06   0.59342870E+07
   0.16310820E+04   0.46110816E+06   0.59342755E+07   0.16804790E+04
   0.46118300E+06   0.59343655E+07   0.16432710E+04   0.46124241E+06
   0.59343580E+07   0.16915880E+04   0.46133681E+06   0.59344445E+07
   0.16557980E+04   0.46137716E+06   0.59344415E+07   0.17029700E+04
   0.46146509E+06   0.59345230E+07   0.16345480E+04   0.46149325E+06
   0.59345255E+07   0.16796960E+04   0.46161197E+06   0.59346010E+07
   0.16364460E+04   0.46163338E+06   0.59346080E+07   0.16822660E+04
   0.46175750E+06   0.59346805E+07   0.16433950E+04   0.46177928E+06
   0.59346940E+07   0.16901200E+04   0.46189950E+06   0.59347615E+07
   0.16474880E+04   0.46192859E+06   0.59347835E+07   0.16935760E+04
   0.46203866E+06   0.59348410E+07   0.16483190E+04   0.46207738E+06
   0.59348715E+07   0.16932850E+04   0.46217212E+06   0.59349170E+07
   0.16454550E+04   0.46222209E+06   0.59349555E+07   0.16912080E+04
   0.46230275E+06   0.59349910E+07   0.16433900E+04   0.46236041E+06
   0.59350340E+07   0.16891040E+04   0.46242853E+06   0.59350605E+07
   0.16419030E+04   0.46249387E+06   0.59351100E+07   0.16888311E+04
   0.46260278E+06   0.59351670E+07   0.16746550E+04   0.46267034E+06
   0.59352175E+07   0.17224760E+04   0.46273331E+06   0.59352410E+07
   0.16759720E+04   0.46280169E+06   0.59352910E+07   0.17232440E+04
   0.46286359E+06   0.59353145E+07   0.16748710E+04   0.46293631E+06
   0.59353680E+07   0.17236520E+04   0.46300163E+06   0.59353935E+07
   0.16750341E+04   0.46306913E+06   0.59354440E+07   0.17226331E+04
   0.46313416E+06   0.59354685E+07   0.16716450E+04   0.46319756E+06
   0.59355165E+07   0.17205250E+04   0.46327056E+06   0.59355460E+07
   0.16745940E+04   0.46333516E+06   0.59355955E+07   0.17276429E+04
   0.46341656E+06   0.59356310E+07   0.16877140E+04   0.46347616E+06
   0.59356775E+07   0.17392660E+04   0.46356403E+06   0.59357175E+07
   0.17026121E+04   0.46361434E+06   0.59357565E+07   0.17493700E+04
   0.46370613E+06   0.59358000E+07   0.17127550E+04   0.46375078E+06
   0.59358345E+07   0.17589189E+04   0.46384097E+06   0.59358765E+07
   0.17196230E+04   0.46387916E+06   0.59359060E+07   0.17616390E+04
   0.46096141E+06   0.59340695E+07   0.16315820E+04   0.46105397E+06
   0.59340550E+07   0.16766270E+04   0.46110803E+06   0.59341500E+07
   0.16322410E+04   0.46118069E+06   0.59341380E+07   0.16785070E+04
   0.46126425E+06   0.59342280E+07   0.16414530E+04   0.46131716E+06
   0.59342210E+07   0.16891490E+04   0.46141909E+06   0.59343065E+07
   0.16542570E+04   0.46145509E+06   0.59343055E+07   0.17009060E+04
   0.46154584E+06   0.59343830E+07   0.16291541E+04   0.46157312E+06
   0.59343885E+07   0.16746300E+04   0.46169222E+06   0.59344615E+07
   0.16316260E+04   0.46171444E+06   0.59344715E+07   0.16776770E+04
   0.46183622E+06   0.59345415E+07   0.16358180E+04   0.46186022E+06
   0.59345585E+07   0.16822330E+04   0.46197781E+06   0.59346225E+07
   0.16385640E+04   0.46200903E+06   0.59346475E+07   0.16849940E+04
   0.46211775E+06   0.59347030E+07   0.16404840E+04   0.46215772E+06
   0.59347355E+07   0.16866169E+04   0.46225109E+06   0.59347780E+07
   0.16363600E+04   0.46229966E+06   0.59348170E+07   0.16816570E+04
   0.46238313E+06   0.59348530E+07   0.16332130E+04   0.46244022E+06
   0.59348975E+07   0.16804380E+04   0.46251297E+06   0.59349255E+07
   0.16317520E+04   0.46257350E+06   0.59349730E+07   0.16792510E+04
   0.46268541E+06   0.59350315E+07   0.16650720E+04   0.46274997E+06
   0.59350825E+07   0.17142860E+04   0.46281728E+06   0.59351060E+07
   0.16673240E+04   0.46288044E+06   0.59351545E+07   0.17152670E+04
   0.46294806E+06   0.59351800E+07   0.16672230E+04   0.46301575E+06
   0.59352320E+07   0.17163560E+04   0.46308322E+06   0.59352565E+07
   0.16671350E+04   0.46314756E+06   0.59353065E+07   0.17144301E+04
   0.46321506E+06   0.59353305E+07   0.16639871E+04   0.46327866E+06
   0.59353810E+07   0.17137500E+04   0.46334994E+06   0.59354070E+07
   0.16654780E+04   0.46341362E+06   0.59354580E+07   0.17183120E+04
   0.46349487E+06   0.59354915E+07   0.16773800E+04   0.46355537E+06
   0.59355400E+07   0.17304670E+04   0.46364512E+06   0.59355805E+07
   0.16952690E+04   0.46369553E+06   0.59356210E+07   0.17426470E+04
   0.46378656E+06   0.59356620E+07   0.17058540E+04   0.46383019E+06
   0.59356975E+07   0.17509380E+04   0.46392053E+06   0.59357380E+07
   0.17129220E+04   0.46395784E+06   0.59357680E+07   0.17534050E+04
   0.46104472E+06   0.59339325E+07   0.16351600E+04   0.46112781E+06
   0.59339165E+07   0.16777371E+04   0.46118863E+06   0.59340130E+07
   0.16302200E+04   0.46124984E+06   0.59340010E+07   0.16738400E+04
   0.46134619E+06   0.59340895E+07   0.16383560E+04   0.46139081E+06
   0.59340835E+07   0.16853430E+04   0.46150031E+06   0.59341680E+07
   0.16509260E+04   0.46153044E+06   0.59341700E+07   0.16960380E+04
   0.46162603E+06   0.59342420E+07   0.16220000E+04   0.46165178E+06
   0.59342515E+07   0.16673940E+04   0.46177103E+06   0.59343205E+07
   0.16238810E+04   0.46179487E+06   0.59343360E+07   0.16705310E+04
   0.46191328E+06   0.59344000E+07   0.16250250E+04   0.46193950E+06
   0.59344225E+07   0.16708320E+04   0.46205212E+06   0.59344790E+07
   0.16237111E+04   0.46208581E+06   0.59345095E+07   0.16711880E+04
   0.46219019E+06   0.59345580E+07   0.16248110E+04   0.46223125E+06
   0.59345945E+07   0.16711990E+04   0.46232244E+06   0.59346325E+07
   0.16200081E+04   0.46237325E+06   0.59346760E+07   0.16666760E+04
   0.46245887E+06   0.59347110E+07   0.16196801E+04   0.46251625E+06
   0.59347585E+07   0.16678311E+04   0.46259206E+06   0.59347865E+07
   0.16188250E+04   0.46264784E+06   0.59348320E+07   0.16654650E+04
   0.46276844E+06   0.59348965E+07   0.16574410E+04   0.46283038E+06
   0.59349480E+07   0.17077850E+04   0.46289941E+06   0.59349700E+07
   0.16593660E+04   0.46295909E+06   0.59350180E+07   0.17088000E+04
   0.46303053E+06   0.59350440E+07   0.16606230E+04   0.46309266E+06
   0.59350935E+07   0.17096520E+04   0.46316369E+06   0.59351190E+07
   0.16611180E+04   0.46322687E+06   0.59351700E+07   0.17097040E+04
   0.46329863E+06   0.59351955E+07   0.16614220E+04   0.46336059E+06
   0.59352460E+07   0.17106071E+04   0.46343222E+06   0.59352705E+07
   0.16614080E+04   0.46349441E+06   0.59353220E+07   0.17136630E+04
   0.46357106E+06   0.59353500E+07   0.16675260E+04   0.46363209E+06
   0.59354005E+07   0.17219900E+04   0.46372344E+06   0.59354410E+07
   0.16876970E+04   0.46377544E+06   0.59354840E+07   0.17371530E+04
   0.46386859E+06   0.59355260E+07   0.17029220E+04   0.46390953E+06
   0.59355600E+07   0.17451400E+04   0.46400106E+06   0.59356005E+07
   0.17098900E+04   0.46403669E+06   0.59356300E+07   0.17475540E+04
   0.46112734E+06   0.59337970E+07   0.16356180E+04   0.46119472E+06
   0.59337785E+07   0.16755580E+04   0.46127184E+06   0.59338775E+07
   0.16267820E+04   0.46132031E+06   0.59338635E+07   0.16699821E+04
   0.46142991E+06   0.59339520E+07   0.16347500E+04   0.46146206E+06
   0.59339460E+07   0.16806560E+04   0.46158112E+06   0.59340300E+07
   0.16466970E+04   0.46160363E+06   0.59340345E+07   0.16914550E+04
   0.46170603E+06   0.59340990E+07   0.16131370E+04   0.46172872E+06
   0.59341140E+07   0.16577250E+04   0.46184744E+06   0.59341755E+07
   0.16128130E+04   0.46187266E+06   0.59341995E+07   0.16590940E+04
   0.46198656E+06   0.59342530E+07   0.16098850E+04   0.46201603E+06
   0.59342840E+07   0.16556680E+04   0.46212553E+06   0.59343325E+07
   0.16089410E+04   0.46216384E+06   0.59343730E+07   0.16585280E+04
   0.46226328E+06   0.59344120E+07   0.16101500E+04   0.46230809E+06
   0.59344570E+07   0.16576300E+04   0.46239659E+06   0.59344880E+07
   0.16070179E+04   0.46245169E+06   0.59345395E+07   0.16553250E+04
   0.46253425E+06   0.59345680E+07   0.16070470E+04   0.46259294E+06
   0.59346200E+07   0.16556750E+04   0.46266994E+06   0.59346455E+07
   0.16068840E+04   0.46272419E+06   0.59346925E+07   0.16538590E+04
   0.46285234E+06   0.59347625E+07   0.16526379E+04   0.46291087E+06
   0.59348125E+07   0.17032220E+04   0.46298291E+06   0.59348355E+07
   0.16550930E+04   0.46303884E+06   0.59348820E+07   0.17046150E+04
   0.46311372E+06   0.59349085E+07   0.16572679E+04   0.46317069E+06
   0.59349555E+07   0.17060900E+04   0.46324475E+06   0.59349820E+07
   0.16580220E+04   0.46330709E+06   0.59350335E+07   0.17085490E+04
   0.46338166E+06   0.59350600E+07   0.16610770E+04   0.46344231E+06
   0.59351105E+07   0.17102400E+04   0.46351281E+06   0.59351330E+07
   0.16584310E+04   0.46357331E+06   0.59351840E+07   0.17101920E+04
   0.46365291E+06   0.59352135E+07   0.16651200E+04   0.46371319E+06
   0.59352650E+07   0.17200699E+04   0.46380431E+06   0.59353040E+07
   0.16851000E+04   0.46385216E+06   0.59353445E+07   0.17311450E+04
   0.46395184E+06   0.59353910E+07   0.17036720E+04   0.46398909E+06
   0.59354230E+07   0.17418120E+04   0.46408247E+06   0.59354640E+07
   0.17097070E+04   0.46411644E+06   0.59354930E+07   0.17446150E+04
   0.46121412E+06   0.59336635E+07   0.16345090E+04   0.46126522E+06
   0.59336390E+07   0.16761410E+04   0.46136497E+06   0.59337425E+07
   0.16266899E+04   0.46139347E+06   0.59337230E+07   0.16706980E+04
   0.46151809E+06   0.59338150E+07   0.16329940E+04   0.46153000E+06
   0.59338065E+07   0.16777230E+04   0.46166241E+06   0.59338915E+07
   0.16425000E+04   0.46167116E+06   0.59338970E+07   0.16873960E+04
   0.46178897E+06   0.59339535E+07   0.16051541E+04   0.46180606E+06
   0.59339755E+07   0.16501840E+04   0.46192372E+06   0.59340260E+07
   0.16034850E+04   0.46195047E+06   0.59340620E+07   0.16495750E+04
   0.46206191E+06   0.59341045E+07   0.16010770E+04   0.46209537E+06
   0.59341490E+07   0.16466910E+04   0.46219969E+06   0.59341845E+07
   0.15980680E+04   0.46224350E+06   0.59342390E+07   0.16477111E+04
   0.46233822E+06   0.59342660E+07   0.15990640E+04   0.46238963E+06
   0.59343245E+07   0.16479680E+04   0.46247525E+06   0.59343460E+07
   0.15991851E+04   0.46253644E+06   0.59344095E+07   0.16493220E+04
   0.46261466E+06   0.59344285E+07   0.16003170E+04   0.46267600E+06
   0.59344875E+07   0.16494580E+04   0.46275059E+06   0.59345070E+07
   0.15998510E+04   0.46280650E+06   0.59345580E+07   0.16486560E+04
   0.46288300E+06   0.59345820E+07   0.16015480E+04   0.46293772E+06
   0.59346305E+07   0.16515520E+04   0.46306559E+06   0.59347005E+07
   0.16527490E+04   0.46311878E+06   0.59347460E+07   0.17021080E+04
   0.46319562E+06   0.59347725E+07   0.16555690E+04   0.46324844E+06
   0.59348175E+07   0.17043820E+04   0.46332547E+06   0.59348450E+07
   0.16570750E+04   0.46338428E+06   0.59348945E+07   0.17074280E+04
   0.46346231E+06   0.59349230E+07   0.16613230E+04   0.46352203E+06
   0.59349735E+07   0.17109740E+04   0.46359631E+06   0.59349980E+07
   0.16605250E+04   0.46365409E+06   0.59350480E+07   0.17110120E+04
   0.46373781E+06   0.59350800E+07   0.16681670E+04   0.46379759E+06
   0.59351315E+07   0.17240640E+04   0.46388622E+06   0.59351680E+07
   0.16863280E+04   0.46393469E+06   0.59352100E+07   0.17334650E+04
   0.46403281E+06   0.59352545E+07   0.17046230E+04   0.46407037E+06
   0.59352870E+07   0.17426700E+04   0.46416287E+06   0.59353265E+07
   0.17104530E+04   0.46419791E+06   0.59353570E+07   0.17452960E+04
   0.46131069E+06   0.59335315E+07   0.16344670E+04   0.46133347E+06
   0.59334960E+07   0.16786990E+04   0.46146694E+06   0.59336110E+07
   0.16287240E+04   0.46146047E+06   0.59335800E+07   0.16728320E+04
   0.46161278E+06   0.59336815E+07   0.16330070E+04   0.46158947E+06
   0.59336620E+07   0.16762780E+04   0.46174631E+06   0.59337540E+07
   0.16396180E+04   0.46172578E+06   0.59337530E+07   0.16832980E+04
   0.46188159E+06   0.59338095E+07   0.15996260E+04   0.46188397E+06
   0.59338380E+07   0.16462939E+04   0.46200350E+06   0.59338750E+07
   0.15986770E+04   0.46203209E+06   0.59339305E+07   0.16463831E+04
   0.46214053E+06   0.59339565E+07   0.15957620E+04   0.46217588E+06
   0.59340165E+07   0.16406920E+04   0.46227550E+06   0.59340340E+07
   0.15894730E+04   0.46232444E+06   0.59341080E+07   0.16401230E+04
   0.46241769E+06   0.59341225E+07   0.15931790E+04   0.46247628E+06
   0.59342005E+07   0.16440710E+04   0.46255744E+06   0.59342070E+07
   0.15952450E+04   0.46262431E+06   0.59342860E+07   0.16466500E+04
   0.46269653E+06   0.59342900E+07   0.15965870E+04   0.46276156E+06
   0.59343590E+07   0.16465601E+04   0.46283159E+06   0.59343685E+07
   0.15956710E+04   0.46288844E+06   0.59344235E+07   0.16449880E+04
   0.46296378E+06   0.59344440E+07   0.15964170E+04   0.46301663E+06
   0.59344925E+07   0.16468770E+04   0.46314631E+06   0.59345635E+07
   0.16510750E+04   0.46319869E+06   0.59346095E+07   0.17013770E+04
   0.46327603E+06   0.59346355E+07   0.16549470E+04   0.46332616E+06
   0.59346790E+07   0.17043860E+04   0.46340616E+06   0.59347080E+07
   0.16583910E+04   0.46346325E+06   0.59347570E+07   0.17098500E+04
   0.46354431E+06   0.59347870E+07   0.16651281E+04   0.46360359E+06
   0.59348380E+07   0.17156870E+04   0.46368053E+06   0.59348645E+07
   0.16664150E+04   0.46373744E+06   0.59349140E+07   0.17169150E+04
   0.46382250E+06   0.59349465E+07   0.16745610E+04   0.46388034E+06
   0.59349970E+07   0.17296300E+04   0.46396591E+06   0.59350300E+07
   0.16883600E+04   0.46401641E+06   0.59350745E+07   0.17378910E+04
   0.46411009E+06   0.59351145E+07   0.17041260E+04   0.46415144E+06
   0.59351510E+07   0.17457290E+04   0.46424206E+06   0.59351880E+07
   0.17113130E+04   0.46427972E+06   0.59352215E+07   0.17479590E+04
   0.46141597E+06   0.59334030E+07   0.16361620E+04   0.46139400E+06
   0.59333490E+07   0.16824340E+04   0.46157969E+06   0.59334865E+07
   0.16295770E+04   0.46151641E+06   0.59334305E+07   0.16759440E+04
   0.46171834E+06   0.59335540E+07   0.16325220E+04   0.46163806E+06
   0.59335100E+07   0.16738550E+04   0.46183331E+06   0.59336180E+07
   0.16379540E+04   0.46175547E+06   0.59335925E+07   0.16789200E+04
   0.46199872E+06   0.59336745E+07   0.15948080E+04   0.46195919E+06
   0.59336975E+07   0.16416560E+04   0.46209125E+06   0.59337240E+07
   0.15939570E+04   0.46211012E+06   0.59337985E+07   0.16422770E+04
   0.46222400E+06   0.59338085E+07   0.15902610E+04   0.46225413E+06
   0.59338840E+07   0.16349611E+04   0.46235772E+06   0.59338885E+07
   0.15840389E+04   0.46240469E+06   0.59339805E+07   0.16355090E+04
   0.46249866E+06   0.59339795E+07   0.15878979E+04   0.46255953E+06
   0.59340770E+07   0.16402040E+04   0.46263834E+06   0.59340660E+07
   0.15909790E+04   0.46270831E+06   0.59341605E+07   0.16432380E+04
   0.46277659E+06   0.59341490E+07   0.15930300E+04   0.46284372E+06
   0.59342280E+07   0.16430680E+04   0.46291059E+06   0.59342275E+07
   0.15921470E+04   0.46296787E+06   0.59342870E+07   0.16412061E+04
   0.46304353E+06   0.59343045E+07   0.15933180E+04   0.46309481E+06
   0.59343535E+07   0.16435260E+04   0.46322666E+06   0.59344265E+07
   0.16512760E+04   0.46327878E+06   0.59344730E+07   0.17028480E+04
   0.46335538E+06   0.59344975E+07   0.16550861E+04   0.46340463E+06
   0.59345405E+07   0.17061840E+04   0.46348916E+06   0.59345730E+07
   0.16636400E+04   0.46354356E+06   0.59346205E+07   0.17148459E+04
   0.46362463E+06   0.59346500E+07   0.16695830E+04   0.46368319E+06
   0.59347010E+07   0.17205260E+04   0.46376178E+06   0.59347280E+07
   0.16729260E+04   0.46381950E+06   0.59347785E+07   0.17243690E+04
   0.46390331E+06   0.59348100E+07   0.16811240E+04   0.46396087E+06
   0.59348610E+07   0.17360699E+04   0.46404506E+06   0.59348920E+07
   0.16925959E+04   0.46409706E+06   0.59349385E+07   0.17441899E+04
   0.46418844E+06   0.59349755E+07   0.17066680E+04   0.46423116E+06
   0.59350140E+07   0.17498240E+04   0.46432253E+06   0.59350510E+07
   0.17144180E+04   0.46436094E+06   0.59350855E+07   0.17515940E+04
   0.46152081E+06   0.59332730E+07   0.16398840E+04   0.46144991E+06
   0.59332000E+07   0.16865150E+04   0.46169987E+06   0.59333675E+07
   0.16299550E+04   0.46155953E+06   0.59332735E+07   0.16831021E+04
   0.46182194E+06   0.59334270E+07   0.16343550E+04   0.46168969E+06
   0.59333585E+07   0.16745410E+04   0.46192031E+06   0.59334830E+07
   0.16378160E+04   0.46179037E+06   0.59334315E+07   0.16775060E+04
   0.46204219E+06   0.59335575E+07   0.16354670E+04   0.46194044E+06
   0.59335500E+07   0.16814530E+04   0.46219506E+06   0.59335855E+07
   0.15882520E+04   0.46218244E+06   0.59336540E+07   0.16351750E+04
   0.46231375E+06   0.59336650E+07   0.15834070E+04   0.46232853E+06
   0.59337480E+07   0.16303170E+04   0.46244475E+06   0.59337495E+07
   0.15798800E+04   0.46248016E+06   0.59338470E+07   0.16303350E+04
   0.46258081E+06   0.59338375E+07   0.15823719E+04   0.46263684E+06
   0.59339465E+07   0.16354850E+04   0.46271897E+06   0.59339245E+07
   0.15867750E+04   0.46278753E+06   0.59340300E+07   0.16395790E+04
   0.46285541E+06   0.59340070E+07   0.15897180E+04   0.46292363E+06
   0.59340945E+07   0.16404100E+04   0.46298847E+06   0.59340850E+07
   0.15894230E+04   0.46304728E+06   0.59341505E+07   0.16394340E+04
   0.46312328E+06   0.59341650E+07   0.15923650E+04   0.46317391E+06
   0.59342155E+07   0.16428760E+04   0.46330934E+06   0.59342915E+07
   0.16552290E+04   0.46336159E+06   0.59343390E+07   0.17084240E+04
   0.46343722E+06   0.59343615E+07   0.16588610E+04   0.46348750E+06
   0.59344065E+07   0.17129330E+04   0.46357369E+06   0.59344395E+07
   0.16713340E+04   0.46362722E+06   0.59344870E+07   0.17234611E+04
   0.46370666E+06   0.59345140E+07   0.16763710E+04   0.46376350E+06
   0.59345640E+07   0.17268080E+04   0.46384356E+06   0.59345920E+07
   0.16813710E+04   0.46390044E+06   0.59346425E+07   0.17324580E+04
   0.46398419E+06   0.59346735E+07   0.16896219E+04   0.46404084E+06
   0.59347240E+07   0.17442650E+04   0.46412538E+06   0.59347550E+07
   0.16998440E+04   0.46417437E+06   0.59347990E+07   0.17496320E+04
   0.46426966E+06   0.59348395E+07   0.17135900E+04   0.46430912E+06
   0.59348750E+07   0.17542500E+04   0.46440287E+06   0.59349135E+07
   0.17182720E+04   0.46444194E+06   0.59349495E+07   0.17565470E+04
   0.46161638E+06   0.59331395E+07   0.16451780E+04   0.46151066E+06
   0.59330545E+07   0.16906240E+04   0.46179647E+06   0.59332355E+07
   0.16359540E+04   0.46160941E+06   0.59331210E+07   0.16900580E+04
   0.46191437E+06   0.59332950E+07   0.16367040E+04   0.46173809E+06
   0.59332055E+07   0.16827581E+04   0.46200556E+06   0.59333490E+07
   0.16385280E+04   0.46185903E+06   0.59332890E+07   0.16803280E+04
   0.46215175E+06   0.59334280E+07   0.16243459E+04   0.46202547E+06
   0.59334045E+07   0.16728680E+04   0.46231163E+06   0.59334615E+07
   0.15767950E+04   0.46226303E+06   0.59335040E+07   0.16243890E+04
   0.46241013E+06   0.59335305E+07   0.15753621E+04   0.46240144E+06
   0.59336020E+07   0.16229570E+04   0.46253288E+06   0.59336125E+07
   0.15738900E+04   0.46255309E+06   0.59337070E+07   0.16252510E+04
   0.46266378E+06   0.59336970E+07   0.15762061E+04   0.46270956E+06
   0.59338050E+07   0.16298960E+04   0.46279978E+06   0.59337840E+07
   0.15825620E+04   0.46286213E+06   0.59338905E+07   0.16355570E+04
   0.46293375E+06   0.59338645E+07   0.15864940E+04   0.46300003E+06
   0.59339555E+07   0.16374420E+04   0.46306922E+06   0.59339465E+07
   0.15900490E+04   0.46312897E+06   0.59340160E+07   0.16412640E+04
   0.46320578E+06   0.59340285E+07   0.15954520E+04   0.46325525E+06
   0.59340795E+07   0.16461240E+04   0.46339269E+06   0.59341575E+07
   0.16614780E+04   0.46344556E+06   0.59342070E+07   0.17168781E+04
   0.46352203E+06   0.59342285E+07   0.16671730E+04   0.46357472E+06
   0.59342765E+07   0.17244160E+04   0.46366081E+06   0.59343085E+07
   0.16817111E+04   0.46371219E+06   0.59343545E+07   0.17329351E+04
   0.46379278E+06   0.59343825E+07   0.16864590E+04   0.46384788E+06
   0.59344310E+07   0.17366420E+04   0.46392547E+06   0.59344565E+07
   0.16895350E+04   0.46398013E+06   0.59345050E+07   0.17397720E+04
   0.46406331E+06   0.59345350E+07   0.16963700E+04   0.46411747E+06
   0.59345840E+07   0.17503180E+04   0.46420206E+06   0.59346145E+07
   0.17038370E+04   0.46425294E+06   0.59346605E+07   0.17578220E+04
   0.46434359E+06   0.59346965E+07   0.17136541E+04   0.46439003E+06
   0.59347390E+07   0.17632190E+04   0.46448153E+06   0.59347750E+07
   0.17210000E+04   0.46452503E+06   0.59348155E+07   0.17648260E+04
   0.46170456E+06   0.59330035E+07   0.16506219E+04   0.46157938E+06
   0.59329135E+07   0.16951071E+04   0.46186231E+06   0.59330875E+07
   0.16466010E+04   0.46167900E+06   0.59329790E+07   0.16956490E+04
   0.46198159E+06   0.59331520E+07   0.16440439E+04   0.46179847E+06
   0.59330580E+07   0.16923430E+04   0.46207672E+06   0.59332090E+07
   0.16434250E+04   0.46192969E+06   0.59331465E+07   0.16880310E+04
   0.46225322E+06   0.59332980E+07   0.16153760E+04   0.46212394E+06
   0.59332650E+07   0.16650220E+04   0.46235231E+06   0.59333645E+07
   0.16151750E+04   0.46227956E+06   0.59333805E+07   0.16639750E+04
   0.46251103E+06   0.59334040E+07   0.15655000E+04   0.46247963E+06
   0.59334540E+07   0.16145000E+04   0.46262197E+06   0.59334795E+07
   0.15670010E+04   0.46262588E+06   0.59335575E+07   0.16186090E+04
   0.46274931E+06   0.59335650E+07   0.15729680E+04   0.46278134E+06
   0.59336560E+07   0.16241429E+04   0.46288288E+06   0.59336490E+07
   0.15803680E+04   0.46293638E+06   0.59337465E+07   0.16330370E+04
   0.46301547E+06   0.59337280E+07   0.15858230E+04   0.46307822E+06
   0.59338170E+07   0.16372230E+04   0.46315344E+06   0.59338130E+07
   0.15938540E+04   0.46321256E+06   0.59338835E+07   0.16454310E+04
   0.46328816E+06   0.59338930E+07   0.15989790E+04   0.46333669E+06
   0.59339440E+07   0.16500380E+04   0.46347437E+06   0.59340215E+07
   0.16665850E+04   0.46352672E+06   0.59340715E+07   0.17229871E+04
   0.46360541E+06   0.59340945E+07   0.16737900E+04   0.46365791E+06
   0.59341425E+07   0.17312360E+04   0.46374519E+06   0.59341750E+07
   0.16887920E+04   0.46379556E+06   0.59342205E+07   0.17403990E+04
   0.46387616E+06   0.59342480E+07   0.16929240E+04   0.46392947E+06
   0.59342955E+07   0.17432629E+04   0.46400612E+06   0.59343200E+07
   0.16949430E+04   0.46405978E+06   0.59343680E+07   0.17461600E+04
   0.46414288E+06   0.59343975E+07   0.17020320E+04   0.46419406E+06
   0.59344440E+07   0.17555341E+04   0.46429266E+06   0.59344870E+07
   0.17222620E+04   0.46432803E+06   0.59345195E+07   0.17619399E+04
   0.46442862E+06   0.59345635E+07   0.17251500E+04   0.46447056E+06
   0.59346025E+07   0.17721310E+04   0.46456681E+06   0.59346425E+07
   0.17304860E+04   0.46460775E+06   0.59346810E+07   0.17735450E+04
   0.46178409E+06   0.59328640E+07   0.16567020E+04   0.46165034E+06
   0.59327720E+07   0.17011930E+04   0.46192859E+06   0.59329425E+07
   0.16548020E+04   0.46175772E+06   0.59328405E+07   0.17016660E+04
   0.46204394E+06   0.59330065E+07   0.16525670E+04   0.46187712E+06
   0.59329170E+07   0.16997061E+04   0.46214538E+06   0.59330670E+07
   0.16500010E+04   0.46199906E+06   0.59329985E+07   0.16976270E+04
   0.46235269E+06   0.59331715E+07   0.16077920E+04   0.46222584E+06
   0.59331270E+07   0.16578879E+04   0.46244416E+06   0.59332305E+07
   0.16075170E+04   0.46236122E+06   0.59332225E+07   0.16559510E+04
   0.46260988E+06   0.59332860E+07   0.15570020E+04   0.46256463E+06
   0.59333090E+07   0.16049490E+04   0.46271084E+06   0.59333495E+07
   0.15584760E+04   0.46270219E+06   0.59334035E+07   0.16090160E+04
   0.46283259E+06   0.59334330E+07   0.15684020E+04   0.46285625E+06
   0.59335075E+07   0.16215580E+04   0.46296681E+06   0.59335195E+07
   0.15800240E+04   0.46301272E+06   0.59336010E+07   0.16326570E+04
   0.46310038E+06   0.59335985E+07   0.15877760E+04   0.46316181E+06
   0.59336830E+07   0.16419771E+04   0.46324141E+06   0.59336855E+07
   0.16005630E+04   0.46329816E+06   0.59337520E+07   0.16509210E+04
   0.46337178E+06   0.59337595E+07   0.16035380E+04   0.46341941E+06
   0.59338090E+07   0.16537810E+04   0.46355603E+06   0.59338860E+07
   0.16700900E+04   0.46360691E+06   0.59339345E+07   0.17262200E+04
   0.46368878E+06   0.59339600E+07   0.16791010E+04   0.46373962E+06
   0.59340070E+07   0.17355389E+04   0.46382641E+06   0.59340390E+07
   0.16913500E+04   0.46387541E+06   0.59340835E+07   0.17434790E+04
   0.46395834E+06   0.59341125E+07   0.16965179E+04   0.46400959E+06
   0.59341590E+07   0.17472620E+04   0.46408831E+06   0.59341845E+07
   0.16995410E+04   0.46414066E+06   0.59342320E+07   0.17518190E+04
   0.46422325E+06   0.59342605E+07   0.17060540E+04   0.46427550E+06
   0.59343080E+07   0.17631541E+04   0.46438462E+06   0.59343605E+07
   0.17411500E+04   0.46441409E+06   0.59343880E+07   0.17757910E+04
   0.46452500E+06   0.59344415E+07   0.17490380E+04   0.46455353E+06
   0.59344685E+07   0.17827510E+04   0.46465878E+06   0.59345165E+07
   0.17470280E+04   0.46469128E+06   0.59345475E+07   0.17833409E+04
   0.46186597E+06   0.59327270E+07   0.16594830E+04   0.46173463E+06
   0.59326380E+07   0.17041021E+04   0.46200062E+06   0.59328015E+07
   0.16599351E+04   0.46185153E+06   0.59327095E+07   0.17043340E+04
   0.46211369E+06   0.59328650E+07   0.16589871E+04   0.46196931E+06
   0.59327810E+07   0.17042460E+04   0.46222019E+06   0.59329270E+07
   0.16556050E+04   0.46208172E+06   0.59328520E+07   0.17048370E+04
   0.46244878E+06   0.59330505E+07   0.16019510E+04   0.46232928E+06
   0.59329935E+07   0.16521390E+04   0.46253584E+06   0.59331015E+07
   0.16020510E+04   0.46245056E+06   0.59330725E+07   0.16510601E+04
   0.46264628E+06   0.59331715E+07   0.16031760E+04   0.46259806E+06
   0.59331705E+07   0.16485610E+04   0.46279744E+06   0.59332280E+07
   0.15528350E+04   0.46278253E+06   0.59332550E+07   0.16010730E+04
   0.46291387E+06   0.59333020E+07   0.15629050E+04   0.46293166E+06
   0.59333540E+07   0.16152450E+04   0.46305062E+06   0.59333920E+07
   0.15811290E+04   0.46309169E+06   0.59334555E+07   0.16340840E+04
   0.46319072E+06   0.59334770E+07   0.15948820E+04   0.46324653E+06
   0.59335460E+07   0.16474230E+04   0.46332619E+06   0.59335550E+07
   0.16036520E+04   0.46338163E+06   0.59336150E+07   0.16535129E+04
   0.46345478E+06   0.59336260E+07   0.16064630E+04   0.46350291E+06
   0.59336745E+07   0.16567000E+04   0.46358356E+06   0.59336990E+07
   0.16113940E+04   0.46362863E+06   0.59337410E+07   0.16619790E+04
   0.46376928E+06   0.59338230E+07   0.16799041E+04   0.46381678E+06
   0.59338660E+07   0.17335450E+04   0.46390541E+06   0.59339005E+07
   0.16899930E+04   0.46395284E+06   0.59339440E+07   0.17427860E+04
   0.46403881E+06   0.59339755E+07   0.16965210E+04   0.46408853E+06
   0.59340210E+07   0.17485010E+04   0.46416978E+06   0.59340485E+07
   0.17010010E+04   0.46422003E+06   0.59340945E+07   0.17537520E+04
   0.46431025E+06   0.59341295E+07   0.17148060E+04   0.46436300E+06
   0.59341785E+07   0.17745341E+04   0.46446475E+06   0.59342235E+07
   0.17435690E+04   0.46450491E+06   0.59342615E+07   0.17924570E+04
   0.46460603E+06   0.59343055E+07   0.17532841E+04   0.46463616E+06
   0.59343345E+07   0.17906520E+04   0.46474200E+06   0.59343820E+07
   0.17531050E+04   0.46477319E+06   0.59344130E+07   0.17902000E+04
   0.46194103E+06   0.59325865E+07   0.16621410E+04   0.46181541E+06
   0.59325020E+07   0.17086030E+04   0.46207372E+06   0.59326615E+07