NOECHO

-- =============================================================================
-- 
-- Exported from reek_grd_w_props
-- 
-- Exported by user hhgs from RMS13 at 2022-12-12 22:51:01
-- 
-- =============================================================================

MAPUNITS
'METRES  ' /

MAPAXES
456510.625 5938935.500
456510.625 5926880.172
467216.753 5926880.172 /

GRIDUNIT
'METRES  ' '        ' /

SPECGRID
  21  23  14   1  F  /

GDORIENT
INC INC INC DOWN RIGHT /

COORD
     4303.157      7461.756    1627.402      4390.573      7451.828    1671.817
     4436.038      7543.923    1628.720      4518.425      7534.058    1678.040
     4589.559      7623.495    1642.102      4655.010      7615.537    1692.020
     4745.012      7702.503    1657.648      4789.065      7698.094    1705.033
     4874.187      7782.075    1639.690      4922.490      7782.831    1714.014
     5021.082      7859.563    1640.968      5058.235      7868.799    1721.001
     5166.913      7938.291    1647.416      5186.530      7949.973    1694.117
     5308.051      8017.819    1651.675      5334.779      8038.769    1697.670
     5443.619      8094.781    1649.600      5481.988      8125.337    1694.568
     5573.307      8168.120    1646.130      5625.516      8207.796    1692.069
     5702.553      8241.863    1646.796      5765.671      8287.662    1693.781
     5827.422      8312.275    1648.370      5947.804      8398.018    1727.270
     6012.400      8425.068    1686.640      6081.568      8473.198    1731.843
     6137.274      8495.345    1685.093      6208.723      8544.816    1730.469
     6264.244      8566.773    1682.068      6347.355      8625.063    1734.056
     6407.600      8649.461    1684.920      6480.769      8701.755    1734.013
     6543.628      8726.889    1683.472      6609.090      8774.544    1732.557
     6682.527      8806.409    1687.980      6745.529      8852.958    1739.149
     6833.824      8895.263    1705.801      6884.723      8933.274    1749.205
     6976.897      8978.153    1716.544      7024.791      9014.154    1760.561
     7117.517      9059.292    1724.545      7162.461      9093.148    1770.941
     7251.932      9135.860    1730.627      7291.035      9165.237    1773.635
     4371.498      7326.109    1627.606      4466.672      7313.676    1674.232
     4515.779      7407.004    1631.082      4597.523      7395.655    1680.479
     4672.373      7485.702    1643.271      4731.782      7477.891    1691.588
     4826.202      7564.545    1655.798      4866.530      7561.321    1702.970
     4954.460      7643.049    1634.548      5002.252      7646.985    1711.116
     5101.358      7720.959    1636.446      5122.752      7727.910    1682.266
     5246.860      7800.631    1643.395      5268.671      7814.160    1690.120
     5388.887      7881.325    1647.488      5417.970      7903.695    1693.576
     5528.036      7961.098    1648.319      5566.740      7991.671    1693.285
     5661.485      8036.856    1645.455      5711.459      8075.393    1691.208
     5792.117      8110.760    1643.390      5849.784      8154.131    1689.104
     5917.901      8180.655    1641.903      6024.848      8261.134    1718.700
     6045.895      8252.882    1641.915      6159.723      8337.297    1722.476
     6222.677      8361.087    1675.972      6291.049      8411.017    1723.244
     6352.975      8434.632    1674.871      6425.702      8488.104    1723.652
     6490.992      8513.602    1675.034      6558.487      8564.008    1722.633
     6623.542      8588.342    1671.645      6686.943      8636.466    1720.525
     6759.939      8665.944    1674.594      6824.538      8715.617    1727.643
     6905.945      8751.046    1687.714      6965.529      8797.275    1739.266
     7053.420      8837.458    1702.612      7103.730      8876.683    1749.370
     7195.493      8919.770    1712.755      7240.146      8954.619    1758.919
     7330.356      8996.543    1719.623      7368.519      9026.247    1761.639
     4450.775      7189.422    1631.582      4543.347      7175.152    1676.627
     4597.402      7269.821    1632.241      4670.049      7258.077    1678.507
     4753.632      7347.814    1641.453      4806.534      7340.763    1689.149
     4908.459      7426.321    1654.257      4944.467      7425.285    1700.906
     5035.221      7503.210    1629.154      5082.358      7512.381    1707.774
     5181.583      7581.573    1631.626      5203.816      7591.742    1677.677
     5325.584      7661.515    1635.818      5349.582      7678.379    1682.233
     5467.194      7742.316    1638.564      5498.399      7767.526    1684.994
     5607.124      7822.783    1640.484      5647.108      7855.502    1686.617
     5740.464      7898.248    1636.360      5789.034      7937.147    1681.657
     5872.508      7972.901    1633.213      5929.592      8017.703    1680.438
     6002.351      8045.522    1631.752      6062.884      8093.057    1679.251
     6130.888      8117.117    1631.603      6239.330      8202.427    1714.286
     6306.652      8226.186    1667.324      6369.805      8274.714    1715.267
     6437.434      8299.847    1667.223      6505.129      8351.909    1716.356
     6572.598      8376.621    1667.135      6636.927      8426.721    1714.430
     6704.451      8450.635    1663.987      6768.022      8500.844    1713.750
     6839.311      8526.958    1665.478      6902.990      8577.802    1718.312
     6984.253      8611.424    1677.380      7044.756      8660.074    1730.467
     7134.510      8700.320    1695.269      7184.910      8740.981    1742.647
     7275.934      8782.181    1705.854      7319.557      8817.382    1750.938
     7409.917      8858.103    1712.922      7447.229      8888.139    1753.405
     4534.081      7052.561    1635.160      4617.177      7036.520    1677.737
     4678.015      7133.137    1630.220      4739.208      7120.984    1673.840
     4835.568      7209.710    1638.356      4880.198      7203.733    1685.343
     4989.694      7288.089    1650.926      5019.821      7289.908    1696.038
     5115.402      7362.125    1622.000      5160.241      7378.780    1701.035
     5260.394      7440.418    1623.881      5284.240      7456.166    1670.531
     5402.656      7520.103    1625.025      5428.878      7542.366    1670.832
     5541.493      7598.975    1623.711      5575.200      7629.397    1671.188
     5679.574      7678.135    1624.811      5720.615      7714.488    1671.199
     5811.804      7752.648    1620.008      5862.619      7796.047    1666.676
     5948.263      7830.973    1619.680      6005.625      7878.502    1667.831
     6081.434      7906.279    1618.825      6137.219      7951.958    1665.465
     6211.680      7978.584    1619.923      6319.745      8067.830    1707.785
     6388.784      8090.178    1659.366      6448.482      8138.133    1708.800
     6519.895      8163.865    1660.623      6582.038      8213.532    1709.652
     6653.059      8238.955    1661.118      6716.240      8289.933    1709.704
     6787.985      8315.301    1661.422      6849.961      8365.907    1710.607
     6921.589      8390.526    1661.408      6983.776      8441.768    1713.663
     7060.434      8470.112    1667.526      7121.465      8520.689    1721.990
     7212.824      8561.040    1687.697      7264.802      8604.228    1737.153
     7357.957      8646.018    1702.922      7398.913      8680.058    1745.140
     7490.423      8720.508    1709.890      7526.049      8750.077    1747.554
     4616.704      6916.988    1635.618      4684.084      6898.679    1675.558
     4761.228      6997.462    1626.782      4809.683      6983.326    1669.982
     4919.276      7071.860    1634.750      4951.435      7066.097    1680.656
     5070.492      7149.806    1646.697      5093.010      7154.358    1691.455
     5195.414      7218.948    1613.137      5237.846      7246.974    1696.599
     5336.805      7295.295    1612.813      5362.039      7319.267    1659.094
     5475.941      7372.982    1609.885      5505.410      7404.232    1655.668
     5614.906      7452.646    1608.941      5653.229      7493.001    1658.528
     5752.645      7532.183    1610.150      5797.478      7576.751    1657.630
     5885.983      7607.941    1607.018      5941.068      7659.364    1655.325
     6023.640      7687.857    1607.047      6082.322      7739.931    1655.675
     6159.311      7765.710    1606.884      6213.563      7812.298    1653.859
     6291.473      7839.829    1609.194      6400.241      7932.713    1703.222
     6472.291      7955.516    1655.093      6528.213      8002.162    1704.615
     6603.081      8028.728    1657.268      6660.060      8075.708    1706.090
     6734.116      8101.975    1658.022      6796.474      8153.686    1708.549
     6871.025      8179.928    1661.077      6931.696      8230.735    1710.240
     7002.172      8253.006    1658.431      7062.692      8304.081    1710.192
     7142.290      8333.668    1665.120      7202.574      8384.810    1720.070
     7293.680      8423.987    1685.100      7341.523      8464.698    1731.145
     7441.232      8511.111    1703.672      7478.472      8542.846    1741.812
     7571.832      8583.810    1709.707      7605.811      8612.778    1744.615
     4703.498      6783.264    1634.509      4754.599      6758.924    1676.141
     4854.350      6862.620    1626.690      4882.854      6843.237    1670.698
     5007.479      6935.061    1632.994      5019.379      6926.387    1677.723
     5151.786      7011.484    1642.500      5160.530      7016.970    1687.396
     5278.341      7073.665    1605.154      5312.186      7117.076    1694.328
     5413.084      7145.925    1603.485      5439.859      7182.050    1649.575
     5551.285      7224.619    1601.077      5584.743      7269.096    1646.691
     5689.064      7304.260    1598.068      5732.861      7358.954    1647.711
     5827.595      7385.862    1599.064      5879.012      7444.489    1647.968
     5964.640      7466.047    1599.185      6025.814      7529.678    1649.322
     6104.022      7548.369    1600.317      6165.388      7607.537    1649.458
     6239.970      7627.036    1599.851      6295.865      7677.914    1648.656
     6372.371      7702.108    1601.548      6480.674      7797.427    1700.518
     6504.881      7777.300    1606.230      6608.145      7866.085    1702.108
     6685.011      7892.748    1655.569      6737.800      7937.390    1704.382
     6814.832      7964.880    1657.075      6873.650      8014.690    1707.428
     6951.702      8042.818    1661.323      7011.400      8093.739    1710.974
     7085.677      8118.230    1660.525      7143.462      8167.850    1711.012
     7227.183      8200.106    1668.167      7286.983      8251.736    1724.064
     7375.592      8288.007    1686.328      7424.073      8330.042    1733.465
     7522.202      8374.411    1704.623      7559.737      8407.068    1742.670
     7652.263      8446.419    1710.453      7687.279      8476.969    1745.296
     4800.048      6651.698    1634.467      4822.854      6616.116    1678.699
     4956.302      6730.877    1628.724      4949.832      6699.751    1672.832
     5102.147      6801.367    1633.007      5078.841      6781.825    1676.278
     5235.702      6874.018    1639.618      5215.145      6873.076    1683.298
     5370.964      6929.435    1599.626      5375.577      6985.116    1690.589
     5492.881      6995.057    1598.677      5521.465      7050.631    1646.383
     5629.910      7076.435    1595.762      5665.256      7136.723    1640.692
     5764.870      7154.111    1589.473      5813.814      7228.142    1640.123
     5907.058      7242.715    1593.179      5965.655      7320.685    1644.071
     6046.802      7327.059    1595.245      6113.679      7405.750    1646.650
     6185.901      7409.933    1596.587      6250.943      7478.840    1646.560
     6320.971      7488.301    1595.671      6377.828      7543.666    1644.988
     6453.160      7563.973    1596.417      6506.008      7612.256    1646.877
     6583.412      7637.706    1600.892      6688.056      7729.555    1701.377
     6765.392      7755.553    1654.947      6815.524      7798.824    1704.386
     6895.522      7827.880    1658.391      6952.630      7877.035    1709.850
     7033.676      7906.976    1665.128      7092.973      7958.230    1715.687
     7169.899      7984.324    1666.415      7226.823      8033.808    1716.915
     7311.883      8066.646    1674.561      7369.731      8117.239    1729.630
     7455.282      8150.225    1688.360      7505.785      8194.665    1737.891
     7599.461      8234.529    1704.126      7640.804      8271.123    1745.729
     7731.440      8308.015    1711.313      7769.103      8341.539    1747.959
     4905.334      6522.810    1636.162      4883.384      6469.030    1682.434
     5069.071      6606.618    1629.577      5005.785      6550.461    1675.944
     5207.717      6674.147    1632.522      5127.440      6630.051    1673.855
     5322.673      6737.776    1637.954      5244.848      6712.699    1678.920
     5488.086      6794.696    1594.808      5410.482      6839.747    1686.825
     5580.610      6843.937    1593.957      5599.508      6918.278    1642.277
     5713.379      6928.698    1590.261      5743.503      7003.951    1634.961
     5847.090      7008.403    1584.039      5894.073      7100.326    1635.509
     5988.025      7099.715    1587.898      6048.903      7196.846    1640.204
     6127.720      7186.064    1590.979      6197.682      7280.359    1643.238
     6265.958      7269.237    1593.030      6333.089      7347.830    1643.068
     6399.972      7347.272    1592.147      6457.245      7407.143    1641.206
     6532.913      7424.559    1593.318      6584.187      7473.470    1643.526
     6662.119      7498.427    1597.932      6768.162      7593.019    1702.848
     6844.748      7617.487    1655.086      6893.987      7660.725    1706.184
     6978.529      7692.978    1663.640      7032.936      7740.432    1714.846
     7114.006      7769.821    1669.583      7172.556      7820.935    1720.526
     7251.158      7847.998    1672.926      7308.876      7898.620    1724.369
     7392.687      7929.934    1681.124      7450.263      7980.776    1736.070
     7534.429      8012.034    1692.596      7586.448      8058.346    1744.190
     7677.810      8095.612    1706.668      7720.533      8133.978    1749.824
     7811.891      8170.814    1714.418      7850.306      8205.609    1751.594
     5010.187      6393.237    1639.884      4939.289      6320.220    1686.515
     5189.250      6487.550    1629.955      5048.897      6393.267    1683.102
     5311.312      6546.882    1634.355      5179.074      6478.492    1674.541
     5409.695      6603.156    1637.816      5279.741      6551.704    1677.506
     5634.120      6685.233    1589.135      5425.564      6669.603    1683.366
     5684.440      6705.669    1588.252      5657.733      6850.055    1687.436
     5803.117      6784.885    1583.407      5817.914      6868.078    1630.317
     5934.118      6869.308    1579.880      5969.526      6967.222    1630.335
     6070.194      6957.484    1582.372      6126.222      7066.314    1635.485
     6208.341      7044.444    1586.775      6276.900      7149.798    1639.579
     6344.778      7126.921    1589.718      6413.004      7214.445    1640.410
     6477.849      7204.908    1589.423      6536.647      7270.447    1639.434
     6612.661      7285.037    1592.365      6663.296      7335.434    1642.876
     6742.118      7360.075    1597.642      6850.978      7459.140    1708.424
     6926.600      7481.639    1658.861      6976.863      7526.484    1712.933
     7063.055      7559.511    1671.334      7116.600      7606.763    1723.461
     7196.020      7634.199    1676.371      7252.868      7684.243    1726.808
     7332.940      7712.210    1681.371      7389.825      7762.457    1732.458
     7473.564      7793.357    1689.622      7530.222      7843.781    1744.265
     7614.764      7874.949    1699.844      7663.746      7918.988    1749.632
     7759.023      7959.309    1713.590      7798.491      7995.200    1754.250
     7892.259      8033.607    1718.272      7931.318      8069.539    1756.547
     5105.749      6259.464    1645.178      5000.037      6174.738    1690.624
     5285.849      6355.343    1635.954      5098.789      6240.816    1690.058
     5403.743      6415.140    1636.704      5227.483      6325.665    1682.758
     5494.942      6469.197    1638.528      5348.413      6409.128    1680.328
     5641.125      6547.973    1624.346      5488.644      6519.775    1682.942
     5800.998      6581.697    1576.795      5700.615      6669.444    1675.115
     5899.496      6650.479    1575.362      5890.802      6721.817    1622.957
     6022.255      6732.708    1573.890      6042.459      6826.976    1625.251
     6153.170      6816.866    1576.206      6198.926      6925.056    1629.896
     6289.152      6903.793    1582.562      6351.489      7010.358    1635.557
     6423.116      6984.412    1586.494      6489.405      7075.448    1637.442
     6558.608      7066.257    1590.049      6618.349      7136.140    1641.264
     6695.160      7148.620    1595.452      6744.633      7199.670    1646.124
     6823.747      7223.005    1600.403      6934.930      7326.758    1716.878
     7011.413      7348.568    1667.173      7064.088      7396.317    1724.416
     7150.177      7428.478    1681.711      7201.555      7474.346    1732.935
     7282.149      7502.276    1686.459      7337.250      7551.188    1736.642
     7414.848      7576.571    1689.535      7469.511      7625.198    1739.772
     7552.702      7655.250    1696.370      7606.850      7703.804    1750.318
     7691.447      7734.575    1703.837      7742.303      7780.727    1757.822
     7832.979      7816.377    1713.654      7879.421      7859.111    1763.219
     7970.892      7894.818    1721.000      8014.416      7935.448    1764.826
     5193.950      6123.499    1650.622      5068.759      6033.481    1695.107
     5351.691      6207.679    1646.601      5168.375      6099.065    1695.649
     5470.971      6271.773    1644.044      5287.856      6178.133    1692.343
     5566.093      6329.073    1643.425      5419.062      6266.577    1688.031
     5742.597      6418.088    1615.376      5556.845      6370.438    1686.707
     5914.879      6468.773    1566.107      5768.926      6500.593    1663.975
     6000.417      6524.240    1565.500      5936.829      6624.570    1664.705
     6111.353      6599.513    1567.001      6115.236      6677.712    1618.609
     6238.683      6684.930    1572.968      6270.710      6775.887    1624.143
     6372.257      6769.228    1580.368      6425.765      6866.411    1633.037
     6504.840      6848.084    1585.823      6567.605      6936.872    1637.223
     6642.827      6932.924    1593.854      6701.942      7003.611    1645.431
     6777.525      7012.812    1598.979      6826.070      7063.987    1650.038
     6905.599      7086.415    1603.945      7016.088      7191.568    1722.987
     7094.778      7214.283    1673.790      7147.280      7262.485    1731.236
     7234.572      7295.124    1688.792      7284.931      7340.584    1740.399
     7365.540      7367.984    1692.924      7418.841      7415.728    1743.263
     7495.491      7439.803    1694.943      7549.163      7487.940    1746.160
     7632.246      7517.475    1702.032      7683.444      7563.781    1755.534
     7782.035      7606.873    1722.262      7817.412      7639.302    1761.940
     7917.995      7683.604    1725.150      7959.953      7722.687    1772.131
     8056.189      7762.303    1730.486      8097.124      7801.087    1773.545
     5273.454      5983.842    1656.702      5139.722      5891.958    1701.193
     5417.975      6062.470    1654.802      5247.096      5960.510    1701.666
     5533.308      6126.482    1652.567      5366.514      6037.233    1699.706
     5634.740      6186.966    1650.001      5488.451      6118.603    1697.627
     5842.051      6291.619    1607.792      5623.714      6214.842    1694.030
     5933.542      6350.271    1607.517      5850.589      6342.551    1655.951
     6099.237      6405.785    1557.002      6007.126      6452.832    1654.657
     6200.225      6469.453    1558.476      6191.559      6523.264    1609.016
     6321.957      6552.891    1568.402      6345.629      6627.717    1621.558
     6456.193      6639.561    1580.024      6502.088      6721.050    1632.657
     6589.753      6718.545    1587.776      6651.178      6802.830    1641.977
     6730.792      6805.472    1600.563      6787.525      6871.994    1650.921
     6861.143      6879.297    1603.538      6908.795      6929.244    1653.781
     6989.492      6952.379    1608.404      7096.283      7054.493    1726.220
     7178.146      7079.956    1679.101      7229.003      7126.828    1735.539
     7315.783      7158.896    1691.350      7364.781      7203.497    1743.479
     7447.709      7232.610    1696.518      7498.983      7278.975    1747.262
     7577.684      7304.394    1699.541      7630.017      7351.805    1751.819
     7712.610      7380.378    1706.054      7764.882      7428.176    1763.154
     7874.014      7480.642    1741.150      7903.457      7507.961    1775.791
     8014.388      7561.662    1749.038      8042.899      7588.591    1782.751
     8148.150      7636.329    1747.028      8180.653      7667.623    1783.341
     5355.354      5847.248    1659.483      5224.007      5758.221    1704.102
     5490.015      5921.587    1659.935      5340.899      5829.327    1704.334
     5603.048      5985.010    1658.987      5458.701      5901.204    1704.246
     5709.575      6046.948    1655.605      5571.103      5972.045    1704.837
     5938.156      6170.498    1601.951      5701.815      6057.683    1701.198
     6025.206      6221.626    1602.051      5939.926      6192.555    1651.060
     6190.421      6292.260    1551.588      6087.453      6290.718    1648.561
     6286.804      6347.861    1552.835      6257.349      6401.812    1648.182
     6403.261      6422.200    1562.905      6421.025      6473.840    1615.245
     6539.989      6511.870    1581.129      6581.076      6575.333    1634.084
     6680.087      6597.014    1594.882      6735.897      6665.751    1647.423
     6815.571      6674.979    1603.652      6871.002      6735.235    1653.513
     6944.160      6746.210    1606.463      6992.267      6794.345    1656.700
     7072.953      6818.914    1611.394      7174.413      6913.852    1725.306
     7203.360      6892.496    1617.428      7306.147      6986.145    1733.545
     7394.780      7020.580    1689.993      7442.207      7063.829    1742.786
     7528.188      7095.680    1696.521      7577.906      7141.015    1748.501
     7659.150      7168.300    1701.001      7709.415      7214.366    1753.752
     7799.635      7249.380    1714.806      7852.389      7298.268    1774.534
     7954.122      7343.507    1743.569      7994.293      7381.333    1792.457
     8095.409      7425.416    1753.284      8125.522      7454.321    1790.652
     8231.360      7502.146    1753.105      8262.578      7532.750    1790.200
     5430.411      5706.280    1662.141      5304.780      5621.875    1708.603
     5563.087      5781.484    1663.217      5431.000      5695.692    1706.936
     5678.491      5846.629    1662.800      5550.039      5763.759    1707.906
     5790.840      5909.995    1659.021      5665.637      5829.445    1708.670
     6026.076      6051.395    1598.657      5795.019      5904.942    1705.401
     6112.697      6096.426    1599.692      6032.781      6049.307    1648.333
     6220.364      6156.868    1600.924      6173.685      6135.904    1645.308
     6369.831      6229.767    1549.291      6338.183      6238.523    1641.984
     6482.639      6293.998    1557.539      6498.429      6323.653    1609.125
     6620.164      6379.589    1578.915      6662.213      6428.301    1635.563
     6761.891      6464.096    1593.977      6816.664      6519.194    1647.234
     6896.642      6540.849    1602.581      6952.818      6593.546    1653.348
     7026.550      6613.424    1607.599      7075.550      6657.666    1658.203
     7157.004      6686.893    1613.977      7200.922      6725.667    1663.946
     7287.908      6760.314    1620.323      7381.875      6843.294    1728.200
     7471.672      6880.277    1684.582      7517.771      6921.908    1738.367
     7608.677      6958.723    1694.810      7656.243      7002.277    1747.562
     7741.540      7033.039    1701.371      7789.368      7077.377    1754.211
     7894.876      7126.229    1731.150      7930.972      7160.185    1773.429
     8038.719      7210.641    1748.774      8070.895      7241.459    1788.933
     8173.149      7285.976    1750.211      8203.870      7316.014    1789.365
     8309.173      7362.666    1749.926      8341.292      7394.796    1789.218
     5503.256      5563.240    1663.466      5389.821      5489.338    1711.737
     5644.717      5646.791    1661.870      5521.936      5563.452    1707.586
     5761.617      5713.556    1662.551      5648.046      5631.426    1706.817
     5875.157      5775.526    1660.183      5766.642      5691.613    1708.211
     6109.959      5934.575    1596.448      5892.095      5755.029    1706.624
     6199.644      5976.008    1598.056      6123.147      5909.161    1648.307
     6306.542      6028.097    1599.055      6259.208      5984.535    1647.747
     6449.923      6115.146    1546.256      6421.535      6082.639    1641.382
     6559.052      6168.932    1550.696      6591.172      6186.353    1648.587
     6690.124      6240.737    1565.131      6731.369      6269.815    1619.408
     6831.905      6322.021    1582.237      6890.159      6364.837    1638.362
     6973.499      6403.789    1597.468      7033.790      6448.816    1651.195
     7108.358      6480.628    1607.275      7159.308      6519.495    1658.893
     7240.714      6555.096    1615.181      7283.971      6589.596    1664.878
     7372.502      6628.382    1622.410      7459.320      6701.417    1723.016
     7548.023      6739.522    1676.954      7592.329      6778.639    1730.912
     7688.201      6820.840    1690.659      7734.872      6863.521    1745.592
     7826.195      6899.894    1702.891      7872.807      6943.574    1757.155
     7970.853      6985.056    1723.235      8009.830      7022.323    1770.403
     8113.908      7068.724    1739.716      8143.969      7098.064    1777.895
     8250.009      7145.545    1742.962      8280.576      7176.055    1782.183
     8386.260      7222.322    1743.116      8418.607      7255.419    1782.668
     5579.642      5420.934    1661.614      5482.593      5363.454    1711.582
     5722.087      5508.621    1660.610      5618.057      5436.496    1705.244
     5842.405      5579.470    1662.300      5741.025      5497.678    1706.016
     5959.542      5642.657    1660.415      5861.745      5551.963    1707.675
     6197.444      5827.510    1593.414      5986.392      5604.531    1706.459
     6290.067      5866.798    1594.482      6207.546      5766.978    1652.701
     6393.958      5909.339    1595.945      6342.314      5831.934    1655.967
     6515.226      5964.760    1599.724      6504.705      5927.704    1648.644
     6634.004      6050.010    1548.559      6672.810      6028.528    1649.317
     6761.604      6110.546    1558.447      6804.256      6122.471    1610.281
     6903.817      6185.908    1574.921      6962.557      6213.939    1628.660
     7046.619      6265.804    1589.894      7112.002      6302.305    1645.909
     7189.423      6347.130    1605.850      7244.521      6380.757    1659.596
     7324.377      6423.224    1615.537      7368.361      6453.550    1665.676
     7457.182      6496.221    1623.454      7540.451      6562.253    1720.736
     7627.789      6601.794    1672.421      7672.772      6640.363    1728.835
     7770.759      6685.662    1689.246      7815.382      6726.267    1744.684
     7911.917      6767.789    1705.001      7949.713      6803.565    1751.288
     8051.967      6848.696    1719.724      8085.032      6880.859    1760.879
     8189.950      6927.435    1729.450      8220.749      6958.114    1768.919
     8326.945      7005.026    1733.712      8358.238      7036.970    1773.908
     8463.152      7081.603    1734.559      8495.985      7116.038    1774.697
     5655.981      5275.904    1658.393      5579.572      5240.371    1708.292
     5797.151      5367.441    1659.438      5713.632      5311.010    1702.493
     5924.438      5446.681    1660.956      5832.403      5365.802    1705.870
     6047.470      5515.875    1658.954      5958.494      5419.444    1706.459
     6277.770      5719.325    1591.686      6090.070      5471.703    1704.805
     6374.212      5760.254    1593.654      6234.686      5534.126    1704.287
     6475.347      5792.421    1597.425      6424.962      5677.273    1668.308
     6594.454      5835.485    1604.233      6588.163      5767.651    1663.518
     6707.226      5934.364    1551.129      6754.482      5875.444    1650.850
     6834.620      5985.053    1558.990      6881.702      5981.318    1610.328
     6976.819      6052.831    1572.022      7037.747      6069.058    1623.420
     7119.686      6129.294    1584.002      7190.571      6158.452    1641.306
     7269.830      6212.505    1603.874      7329.346      6241.589    1658.994
     7407.653      6290.247    1615.133      7453.907      6317.557    1666.412
     7541.929      6363.750    1623.342      7621.667      6423.044    1718.476
     7709.483      6465.559    1669.836      7753.305      6502.559    1725.778